 vasp.5.4.4.18Apr17-6-g9f103f2a35 (build Apr 24 2017 21:27:10) complex          
  
 executed on             LinuxIFC date 2019.06.17  15:23:17
 running on   24 total cores
 distrk:  each k-point on   24 cores,    1 groups
 distr:  one band on NCORES_PER_BAND=   4 cores,    6 groups


--------------------------------------------------------------------------------------------------------


 INCAR:
 POTCAR:    PAW_PBE Al 04Jan2001                  
 POTCAR:    PAW_PBE Al 04Jan2001                  
   VRHFIN =Al: s2p1                                                             
   LEXCH  = PE                                                                  
   EATOM  =    53.5387 eV,    3.9350 Ry                                         
                                                                                
   TITEL  = PAW_PBE Al 04Jan2001                                                
   LULTRA =        F    use ultrasoft PP ?                                      
   IUNSCR =        1    unscreen: 0-lin 1-nonlin 2-no                           
   RPACOR =    1.500    partial core radius                                     
   POMASS =   26.981; ZVAL   =    3.000    mass and valenz                      
   RCORE  =    1.900    outmost cutoff radius                                   
   RWIGS  =    2.650; RWIGS  =    1.402    wigner-seitz radius (au A)           
   ENMAX  =  240.300; ENMIN  =  180.225 eV                                      
   ICORE  =        2    local potential                                         
   LCOR   =        T    correct aug charges                                     
   LPAW   =        T    paw PP                                                  
   EAUG   =  291.052                                                            
   DEXC   =    0.000                                                            
   RMAX   =    1.939    core radius for proj-oper                               
   RAUG   =    1.300    factor for augmentation sphere                          
   RDEP   =    1.966    radius for radial grids                                 
   RDEPT  =    1.856    core radius for aug-charge                              
                                                                                
   Atomic configuration                                                         
    6 entries                                                                   
     n  l   j            E        occ.                                          
     1  0  0.50     -1511.1048   2.0000                                         
     2  0  0.50      -108.1629   2.0000                                         
     2  1  1.50       -69.6402   6.0000                                         
     3  0  0.50        -7.7528   2.0000                                         
     3  1  1.50        -2.7121   1.0000                                         
     3  2  2.50        -2.7212   0.0000                                         
   Description                                                                  
     l       E           TYP  RCUT    TYP  RCUT                                 
     0     -7.7528455     23  1.900                                             
     0     -3.3096929     23  1.900                                             
     1     -2.7120682     23  1.900                                             
     1     13.6058260     23  1.900                                             
     2     -2.7211652      7  1.900                                             
  local pseudopotential read in
  partial core-charges read in
  partial kinetic energy density read in
  atomic valenz-charges read in
  non local Contribution for L=           0  read in
    real space projection operators read in
  non local Contribution for L=           0  read in
    real space projection operators read in
  non local Contribution for L=           1  read in
    real space projection operators read in
  non local Contribution for L=           1  read in
    real space projection operators read in
    PAW grid and wavefunctions read in
 
   number of l-projection  operators is LMAX  =           4
   number of lm-projection operators is LMMAX =           8
 

 ----------------------------------------------------------------------------- 
|                                                                             |
|  ADVICE TO THIS USER RUNNING 'VASP/VAMP'   (HEAR YOUR MASTER'S VOICE ...):  |
|                                                                             |
|      You enforced a specific xc-type in the INCAR file,                     |
|      a different type was found on the POTCAR file                          |
|          I HOPE YOU KNOW, WHAT YOU ARE  DOING                               |
|                                                                             |
 ----------------------------------------------------------------------------- 

  PAW_PBE Al 04Jan2001                  :
 energy of atom  1       EATOM=  -53.5387
 kinetic energy error for atom=    0.0002 (will be added to EATOM!!)
 
 
 POSCAR: Al_FCC                                  
  positions in direct lattice
  velocities in cartesian coordinates
 exchange correlation table for  LEXCH =       14
   RHO(1)=    0.500       N(1)  =     2000
   RHO(2)=  100.500       N(2)  =     4000
 


--------------------------------------------------------------------------------------------------------


 ion  position               nearest neighbor table
   1  0.000  0.000  0.000-
 

IMPORTANT INFORMATION: All symmetrisations will be switched off!
NOSYMM: (Re-)initialisation of all symmetry stuff for point group C_1.

 
 
 KPOINTS: band_structure                          
  interpolating k-points between supplied coordinates
  k-points in reciprocal lattice
Space group operators:
 irot       det(A)        alpha          n_x          n_y          n_z        tau_x        tau_y        tau_z
    1     1.000000     0.000001     1.000000     0.000000     0.000000     0.000000     0.000000     0.000000


--------------------------------------------------------------------------------------------------------




 Dimension of arrays:
   k-points           NKPTS =    120   k-points in BZ     NKDIM =    120   number of bands    NBANDS=     18
   number of dos      NEDOS =    301   number of ions     NIONS =      1
   non local maximal  LDIM  =      4   non local SUM 2l+1 LMDIM =      8
   total plane-waves  NPLWV =  13824
   max r-space proj   IRMAX =      1   max aug-charges    IRDMAX=  33543
   dimension x,y,z NGX =    24 NGY =   24 NGZ =   24
   dimension x,y,z NGXF=    48 NGYF=   48 NGZF=   48
   support grid    NGXF=    48 NGYF=   48 NGZF=   48
   ions per type =               1
   NGX,Y,Z   is equivalent  to a cutoff of  14.07, 14.07, 14.07 a.u.
   NGXF,Y,Z  is equivalent  to a cutoff of  28.13, 28.13, 28.13 a.u.

 SYSTEM =  Al                                      
 POSCAR =  Al_FCC                                  

 Startparameter for this run:
   NWRITE =      2    write-flag & timer
   PREC   = accura    normal or accurate (medium, high low for compatibility)
   ISTART =      0    job   : 0-new  1-cont  2-samecut
   ICHARG =     11    charge: 1-file 2-atom 10-const
   ISPIN  =      1    spin polarized calculation?
   LNONCOLLINEAR =      F non collinear calculations
   LSORBIT =      F    spin-orbit coupling
   INIWAV =      1    electr: 0-lowe 1-rand  2-diag
   LASPH  =      F    aspherical Exc in radial PAW
   METAGGA=      F    non-selfconsistent MetaGGA calc.

 Electronic Relaxation 1
   ENCUT  =  600.0 eV  44.10 Ry    6.64 a.u.   5.66  5.66  5.66*2*pi/ulx,y,z
   ENINI  =  600.0     initial cutoff
   ENAUG  =  291.1 eV  augmentation charge cutoff
   NELM   =     60;   NELMIN=  6; NELMDL=  0     # of ELM steps 
   EDIFF  = 0.1E-06   stopping-criterion for ELM
   LREAL  =      F    real-space projection
   NLSPLINE    = F    spline interpolate recip. space projectors
   LCOMPAT=      F    compatible to vasp.4.4
   GGA_COMPAT  = T    GGA compatible to vasp.4.4-vasp.4.6
   LMAXPAW     = -100 max onsite density
   LMAXMIX     =    2 max onsite mixed and CHGCAR
   VOSKOWN=      0    Vosko Wilk Nusair interpolation
   ROPT   =    0.00000
 Ionic relaxation
   EDIFFG = 0.1E-05   stopping-criterion for IOM
   NSW    =      0    number of steps for IOM
   NBLOCK =      1;   KBLOCK =      1    inner block; outer block 
   IBRION =     -1    ionic relax: 0-MD 1-quasi-New 2-CG
   NFREE  =      0    steps in history (QN), initial steepest desc. (CG)
   ISIF   =      0    stress and relaxation
   IWAVPR =     10    prediction:  0-non 1-charg 2-wave 3-comb
   ISYM   =     -1    0-nonsym 1-usesym 2-fastsym
   LCORR  =      T    Harris-Foulkes like correction to forces

   POTIM  = 0.5000    time-step for ionic-motion
   TEIN   =    0.0    initial temperature
   TEBEG  =    0.0;   TEEND  =   0.0 temperature during run
   SMASS  =  -3.00    Nose mass-parameter (am)
   estimated Nose-frequenzy (Omega)   =  0.10E-29 period in steps =****** mass=  -0.184E-27a.u.
   SCALEE = 1.0000    scale energy and forces
   NPACO  =    256;   APACO  = 16.0  distance and # of slots for P.C.
   PSTRESS=    0.0 pullay stress

  Mass of Ions in am
   POMASS =  26.98
  Ionic Valenz
   ZVAL   =   3.00
  Atomic Wigner-Seitz radii
   RWIGS  =  -1.00
  virtual crystal weights 
   VCA    =   1.00
   NELECT =       3.0000    total number of electrons
   NUPDOWN=      -1.0000    fix difference up-down

 DOS related values:
   EMIN   =  10.00;   EMAX   =-10.00  energy-range for DOS
   EFERMI =   0.00
   ISMEAR =     0;   SIGMA  =   0.02  broadening in eV -4-tet -1-fermi 0-gaus

 Electronic relaxation 2 (details)
   IALGO  =     38    algorithm
   LDIAG  =      T    sub-space diagonalisation (order eigenvalues)
   LSUBROT=      F    optimize rotation matrix (better conditioning)
   TURBO    =      0    0=normal 1=particle mesh
   IRESTART =      0    0=no restart 2=restart with 2 vectors
   NREBOOT  =      0    no. of reboots
   NMIN     =      0    reboot dimension
   EREF     =   0.00    reference energy to select bands
   IMIX   =      4    mixing-type and parameters
     AMIX     =   0.40;   BMIX     =  1.00
     AMIX_MAG =   1.60;   BMIX_MAG =  1.00
     AMIN     =   0.10
     WC   =   100.;   INIMIX=   1;  MIXPRE=   1;  MAXMIX= -45

 Intra band minimization:
   WEIMIN = 0.0000     energy-eigenvalue tresh-hold
   EBREAK =  0.14E-08  absolut break condition
   DEPER  =   0.30     relativ break condition  

   TIME   =   0.40     timestep for ELM

  volume/ion in A,a.u.               =      16.13       108.88
  Fermi-wavevector in a.u.,A,eV,Ry     =   0.934403  1.765765 11.879361  0.873108
  Thomas-Fermi vector in A             =   2.061204
 
 Write flags
   LWAVE        =      T    write WAVECAR
   LDOWNSAMPLE  =      F    k-point downsampling of WAVECAR
   LCHARG       =      F    write CHGCAR
   LVTOT        =      F    write LOCPOT, total local potential
   LVHAR        =      F    write LOCPOT, Hartree potential only
   LELF         =      F    write electronic localiz. function (ELF)
   LORBIT       =     11    0 simple, 1 ext, 2 COOP (PROOUT), +10 PAW based schemes


 Dipole corrections
   LMONO  =      F    monopole corrections only (constant potential shift)
   LDIPOL =      F    correct potential (dipole corrections)
   IDIPOL =      0    1-x, 2-y, 3-z, 4-all directions 
   EPSILON=  1.0000000 bulk dielectric constant

 Exchange correlation treatment:
   GGA     =    PS    GGA type
   LEXCH   =    14    internal setting for exchange type
   VOSKOWN=      0    Vosko Wilk Nusair interpolation
   LHFCALC =     F    Hartree Fock is set to
   LHFONE  =     F    Hartree Fock one center treatment
   AEXX    =    0.0000 exact exchange contribution

 Linear response parameters
   LEPSILON=     F    determine dielectric tensor
   LRPA    =     F    only Hartree local field effects (RPA)
   LNABLA  =     F    use nabla operator in PAW spheres
   LVEL    =     F    velocity operator in full k-point grid
   LINTERFAST=   F  fast interpolation
   KINTER  =     0    interpolate to denser k-point grid
   CSHIFT  =0.1000    complex shift for real part using Kramers Kronig
   OMEGAMAX=  -1.0    maximum frequency
   DEG_THRESHOLD= 0.2000000E-02 threshold for treating states as degnerate
   RTIME   =   -0.100 relaxation time in fs
  (WPLASMAI=    0.000 imaginary part of plasma frequency in eV, 0.658/RTIME)
   DFIELD  = 0.0000000 0.0000000 0.0000000 field for delta impulse in time
 
 Orbital magnetization related:
   ORBITALMAG=     F  switch on orbital magnetization
   LCHIMAG   =     F  perturbation theory with respect to B field
   DQ        =  0.001000  dq finite difference perturbation B field
   LLRAUG    =     F  two centre corrections for induced B field



--------------------------------------------------------------------------------------------------------


 Static calculation
 charge density and potential remain constant during run
 non-spin polarized calculation
 Variant of blocked Davidson
 Davidson routine will perform the subspace rotation
 perform sub-space diagonalisation
    after iterative eigenvector-optimisation
 no mixing
 using additional bands           16
 reciprocal scheme for non local part
 use partial core corrections
 calculate Harris-corrections to forces 
   (improved forces if not selfconsistent)
 use gradient corrections 
 WARNING: stress and forces are not correct
  (second derivative of E(xc) not defined)
 use of overlap-Matrix (Vanderbilt PP)
 Gauss-broadening in eV      SIGMA  =   0.02


--------------------------------------------------------------------------------------------------------


  energy-cutoff  :      600.00
  volume of cell :       16.13
      direct lattice vectors                 reciprocal lattice vectors
     2.005570022  2.005570022 -0.000000000     0.249305681  0.249305681 -0.249305681
     0.000000000  2.005570022  2.005570022    -0.249305681  0.249305681  0.249305681
     2.005570022 -0.000000000  2.005570022     0.249305681 -0.249305681  0.249305681

  length of vectors
     2.836304325  2.836304325  2.836304325     0.431810106  0.431810106  0.431810106


 
 k-points in units of 2pi/SCALE and weight: band_structure                          
   0.00000000  0.00000000  0.00000000       0.008
   0.00639245 -0.00000000  0.00000000       0.008
   0.01278491 -0.00000000  0.00000000       0.008
   0.01917736 -0.00000000  0.00000000       0.008
   0.02556981 -0.00000000  0.00000000       0.008
   0.03196227 -0.00000000  0.00000000       0.008
   0.03835472 -0.00000000  0.00000000       0.008
   0.04474717 -0.00000000  0.00000000       0.008
   0.05113963 -0.00000000  0.00000000       0.008
   0.05753208 -0.00000000  0.00000000       0.008
   0.06392453 -0.00000000  0.00000000       0.008
   0.07031699 -0.00000000  0.00000000       0.008
   0.07670944 -0.00000000  0.00000000       0.008
   0.08310189 -0.00000000  0.00000000       0.008
   0.08949435 -0.00000000  0.00000000       0.008
   0.09588680 -0.00000000  0.00000000       0.008
   0.10227925 -0.00000000  0.00000000       0.008
   0.10867171 -0.00000000  0.00000000       0.008
   0.11506416 -0.00000000  0.00000000       0.008
   0.12145661 -0.00000000  0.00000000       0.008
   0.12784907 -0.00000000  0.00000000       0.008
   0.13424152 -0.00000000  0.00000000       0.008
   0.14063397 -0.00000000  0.00000000       0.008
   0.14702643 -0.00000000  0.00000000       0.008
   0.15341888 -0.00000000  0.00000000       0.008
   0.15981133 -0.00000000  0.00000000       0.008
   0.16620379 -0.00000000  0.00000000       0.008
   0.17259624 -0.00000000  0.00000000       0.008
   0.17898869 -0.00000000  0.00000000       0.008
   0.18538115 -0.00000000  0.00000000       0.008
   0.19177360 -0.00000000  0.00000000       0.008
   0.19816605 -0.00000000  0.00000000       0.008
   0.20455851 -0.00000000  0.00000000       0.008
   0.21095096 -0.00000000  0.00000000       0.008
   0.21734341 -0.00000000  0.00000000       0.008
   0.22373587 -0.00000000  0.00000000       0.008
   0.23012832 -0.00000000  0.00000000       0.008
   0.23652077 -0.00000000  0.00000000       0.008
   0.24291323 -0.00000000  0.00000000       0.008
   0.24930568 -0.00000000  0.00000000       0.008
   0.24930568 -0.00000000  0.00000000       0.008
   0.24930568 -0.00000000  0.00319623       0.008
   0.24930568  0.00000000  0.00639245       0.008
   0.24930568 -0.00000000  0.00958868       0.008
   0.24930568 -0.00000000  0.01278491       0.008
   0.24930568 -0.00000000  0.01598113       0.008
   0.24930568  0.00000000  0.01917736       0.008
   0.24930568 -0.00000000  0.02237359       0.008
   0.24930568 -0.00000000  0.02556981       0.008
   0.24930568 -0.00000000  0.02876604       0.008
   0.24930568 -0.00000000  0.03196227       0.008
   0.24930568 -0.00000000  0.03515849       0.008
   0.24930568 -0.00000000  0.03835472       0.008
   0.24930568 -0.00000000  0.04155095       0.008
   0.24930568 -0.00000000  0.04474717       0.008
   0.24930568 -0.00000000  0.04794340       0.008
   0.24930568 -0.00000000  0.05113963       0.008
   0.24930568 -0.00000000  0.05433585       0.008
   0.24930568 -0.00000000  0.05753208       0.008
   0.24930568 -0.00000000  0.06072831       0.008
   0.24930568 -0.00000000  0.06392453       0.008
   0.24930568 -0.00000000  0.06712076       0.008
   0.24930568  0.00000000  0.07031699       0.008
   0.24930568 -0.00000000  0.07351321       0.008
   0.24930568 -0.00000000  0.07670944       0.008
   0.24930568 -0.00000000  0.07990567       0.008
   0.24930568  0.00000000  0.08310189       0.008
   0.24930568 -0.00000000  0.08629812       0.008
   0.24930568 -0.00000000  0.08949435       0.008
   0.24930568 -0.00000000  0.09269057       0.008
   0.24930568 -0.00000000  0.09588680       0.008
   0.24930568 -0.00000000  0.09908303       0.008
   0.24930568 -0.00000000  0.10227925       0.008
   0.24930568 -0.00000000  0.10547548       0.008
   0.24930568 -0.00000000  0.10867171       0.008
   0.24930568 -0.00000000  0.11186793       0.008
   0.24930568 -0.00000000  0.11506416       0.008
   0.24930568 -0.00000000  0.11826039       0.008
   0.24930568 -0.00000000  0.12145661       0.008
   0.24930568  0.00000000  0.12465284       0.008
   0.24930568  0.00000000  0.12465284       0.008
   0.24770757  0.00000000  0.12625095       0.008
   0.24610945  0.00000000  0.12784907       0.008
   0.24451134  0.00000000  0.12944718       0.008
   0.24291323  0.00000000  0.13104529       0.008
   0.24131511  0.00000000  0.13264341       0.008
   0.23971700  0.00000000  0.13424152       0.008
   0.23811889  0.00000000  0.13583963       0.008
   0.23652077  0.00000000  0.13743775       0.008
   0.23492266  0.00000000  0.13903586       0.008
   0.23332455  0.00000000  0.14063397       0.008
   0.23172643  0.00000000  0.14223209       0.008
   0.23012832  0.00000000  0.14383020       0.008
   0.22853021  0.00000000  0.14542831       0.008
   0.22693209  0.00000000  0.14702643       0.008
   0.22533398  0.00000000  0.14862454       0.008
   0.22373587  0.00000000  0.15022265       0.008
   0.22213775  0.00000000  0.15182077       0.008
   0.22053964  0.00000000  0.15341888       0.008
   0.21894153  0.00000000  0.15501699       0.008
   0.21734341  0.00000000  0.15661511       0.008
   0.21574530  0.00000000  0.15821322       0.008
   0.21414719  0.00000000  0.15981133       0.008
   0.21254907  0.00000000  0.16140945       0.008
   0.21095096  0.00000000  0.16300756       0.008
   0.20935285  0.00000000  0.16460567       0.008
   0.20775473  0.00000000  0.16620379       0.008
   0.20615662  0.00000000  0.16780190       0.008
   0.20455851  0.00000000  0.16940001       0.008
   0.20296039  0.00000000  0.17099813       0.008
   0.20136228  0.00000000  0.17259624       0.008
   0.19976417  0.00000000  0.17419435       0.008
   0.19816605  0.00000000  0.17579247       0.008
   0.19656794  0.00000000  0.17739058       0.008
   0.19496983  0.00000000  0.17898869       0.008
   0.19337171  0.00000000  0.18058681       0.008
   0.19177360  0.00000000  0.18218492       0.008
   0.19017549  0.00000000  0.18378303       0.008
   0.18857737  0.00000000  0.18538115       0.008
   0.18697926  0.00000000  0.18697926       0.008
 
 k-points in reciprocal lattice and weights: band_structure                          
   0.00000000  0.00000000  0.00000000       0.008
   0.01282051  0.00000000  0.01282051       0.008
   0.02564103  0.00000000  0.02564103       0.008
   0.03846154  0.00000000  0.03846154       0.008
   0.05128205  0.00000000  0.05128205       0.008
   0.06410256  0.00000000  0.06410256       0.008
   0.07692308  0.00000000  0.07692308       0.008
   0.08974359  0.00000000  0.08974359       0.008
   0.10256410  0.00000000  0.10256410       0.008
   0.11538462  0.00000000  0.11538462       0.008
   0.12820513  0.00000000  0.12820513       0.008
   0.14102564  0.00000000  0.14102564       0.008
   0.15384615  0.00000000  0.15384615       0.008
   0.16666667  0.00000000  0.16666667       0.008
   0.17948718  0.00000000  0.17948718       0.008
   0.19230769  0.00000000  0.19230769       0.008
   0.20512821  0.00000000  0.20512821       0.008
   0.21794872  0.00000000  0.21794872       0.008
   0.23076923  0.00000000  0.23076923       0.008
   0.24358974  0.00000000  0.24358974       0.008
   0.25641026  0.00000000  0.25641026       0.008
   0.26923077  0.00000000  0.26923077       0.008
   0.28205128  0.00000000  0.28205128       0.008
   0.29487179  0.00000000  0.29487179       0.008
   0.30769231  0.00000000  0.30769231       0.008
   0.32051282  0.00000000  0.32051282       0.008
   0.33333333  0.00000000  0.33333333       0.008
   0.34615385  0.00000000  0.34615385       0.008
   0.35897436  0.00000000  0.35897436       0.008
   0.37179487  0.00000000  0.37179487       0.008
   0.38461538  0.00000000  0.38461538       0.008
   0.39743590  0.00000000  0.39743590       0.008
   0.41025641  0.00000000  0.41025641       0.008
   0.42307692  0.00000000  0.42307692       0.008
   0.43589744  0.00000000  0.43589744       0.008
   0.44871795  0.00000000  0.44871795       0.008
   0.46153846  0.00000000  0.46153846       0.008
   0.47435897  0.00000000  0.47435897       0.008
   0.48717949  0.00000000  0.48717949       0.008
   0.50000000  0.00000000  0.50000000       0.008
   0.50000000  0.00000000  0.50000000       0.008
   0.50000000  0.00641026  0.50641026       0.008
   0.50000000  0.01282051  0.51282051       0.008
   0.50000000  0.01923077  0.51923077       0.008
   0.50000000  0.02564103  0.52564103       0.008
   0.50000000  0.03205128  0.53205128       0.008
   0.50000000  0.03846154  0.53846154       0.008
   0.50000000  0.04487179  0.54487179       0.008
   0.50000000  0.05128205  0.55128205       0.008
   0.50000000  0.05769231  0.55769231       0.008
   0.50000000  0.06410256  0.56410256       0.008
   0.50000000  0.07051282  0.57051282       0.008
   0.50000000  0.07692308  0.57692308       0.008
   0.50000000  0.08333333  0.58333333       0.008
   0.50000000  0.08974359  0.58974359       0.008
   0.50000000  0.09615385  0.59615385       0.008
   0.50000000  0.10256410  0.60256410       0.008
   0.50000000  0.10897436  0.60897436       0.008
   0.50000000  0.11538462  0.61538462       0.008
   0.50000000  0.12179487  0.62179487       0.008
   0.50000000  0.12820513  0.62820513       0.008
   0.50000000  0.13461538  0.63461538       0.008
   0.50000000  0.14102564  0.64102564       0.008
   0.50000000  0.14743590  0.64743590       0.008
   0.50000000  0.15384615  0.65384615       0.008
   0.50000000  0.16025641  0.66025641       0.008
   0.50000000  0.16666667  0.66666667       0.008
   0.50000000  0.17307692  0.67307692       0.008
   0.50000000  0.17948718  0.67948718       0.008
   0.50000000  0.18589744  0.68589744       0.008
   0.50000000  0.19230769  0.69230769       0.008
   0.50000000  0.19871795  0.69871795       0.008
   0.50000000  0.20512821  0.70512821       0.008
   0.50000000  0.21153846  0.71153846       0.008
   0.50000000  0.21794872  0.71794872       0.008
   0.50000000  0.22435897  0.72435897       0.008
   0.50000000  0.23076923  0.73076923       0.008
   0.50000000  0.23717949  0.73717949       0.008
   0.50000000  0.24358974  0.74358974       0.008
   0.50000000  0.25000000  0.75000000       0.008
   0.50000000  0.25000000  0.75000000       0.008
   0.49679487  0.25320513  0.75000000       0.008
   0.49358974  0.25641026  0.75000000       0.008
   0.49038462  0.25961538  0.75000000       0.008
   0.48717949  0.26282051  0.75000000       0.008
   0.48397436  0.26602564  0.75000000       0.008
   0.48076923  0.26923077  0.75000000       0.008
   0.47756410  0.27243590  0.75000000       0.008
   0.47435897  0.27564103  0.75000000       0.008
   0.47115385  0.27884615  0.75000000       0.008
   0.46794872  0.28205128  0.75000000       0.008
   0.46474359  0.28525641  0.75000000       0.008
   0.46153846  0.28846154  0.75000000       0.008
   0.45833333  0.29166667  0.75000000       0.008
   0.45512821  0.29487179  0.75000000       0.008
   0.45192308  0.29807692  0.75000000       0.008
   0.44871795  0.30128205  0.75000000       0.008
   0.44551282  0.30448718  0.75000000       0.008
   0.44230769  0.30769231  0.75000000       0.008
   0.43910256  0.31089744  0.75000000       0.008
   0.43589744  0.31410256  0.75000000       0.008
   0.43269231  0.31730769  0.75000000       0.008
   0.42948718  0.32051282  0.75000000       0.008
   0.42628205  0.32371795  0.75000000       0.008
   0.42307692  0.32692308  0.75000000       0.008
   0.41987179  0.33012821  0.75000000       0.008
   0.41666667  0.33333333  0.75000000       0.008
   0.41346154  0.33653846  0.75000000       0.008
   0.41025641  0.33974359  0.75000000       0.008
   0.40705128  0.34294872  0.75000000       0.008
   0.40384615  0.34615385  0.75000000       0.008
   0.40064103  0.34935897  0.75000000       0.008
   0.39743590  0.35256410  0.75000000       0.008
   0.39423077  0.35576923  0.75000000       0.008
   0.39102564  0.35897436  0.75000000       0.008
   0.38782051  0.36217949  0.75000000       0.008
   0.38461538  0.36538462  0.75000000       0.008
   0.38141026  0.36858974  0.75000000       0.008
   0.37820513  0.37179487  0.75000000       0.008
   0.37500000  0.37500000  0.75000000       0.008
 
 position of ions in fractional coordinates (direct lattice) 
   0.00000000  0.00000000  0.00000000
 
 position of ions in cartesian coordinates  (Angst):
   0.00000000  0.00000000  0.00000000
 


--------------------------------------------------------------------------------------------------------


 k-point  1 :   0.0000 0.0000 0.0000  plane waves:     537
 k-point  2 :   0.0128 0.0000 0.0128  plane waves:     536
 k-point  3 :   0.0256 0.0000 0.0256  plane waves:     536
 k-point  4 :   0.0385 0.0000 0.0385  plane waves:     536
 k-point  5 :   0.0513 0.0000 0.0513  plane waves:     536
 k-point  6 :   0.0641 0.0000 0.0641  plane waves:     536
 k-point  7 :   0.0769 0.0000 0.0769  plane waves:     536
 k-point  8 :   0.0897 0.0000 0.0897  plane waves:     536
 k-point  9 :   0.1026 0.0000 0.1026  plane waves:     540
 k-point 10 :   0.1154 0.0000 0.1154  plane waves:     540
 k-point 11 :   0.1282 0.0000 0.1282  plane waves:     544
 k-point 12 :   0.1410 0.0000 0.1410  plane waves:     544
 k-point 13 :   0.1538 0.0000 0.1538  plane waves:     544
 k-point 14 :   0.1667 0.0000 0.1667  plane waves:     548
 k-point 15 :   0.1795 0.0000 0.1795  plane waves:     548
 k-point 16 :   0.1923 0.0000 0.1923  plane waves:     540
 k-point 17 :   0.2051 0.0000 0.2051  plane waves:     540
 k-point 18 :   0.2179 0.0000 0.2179  plane waves:     536
 k-point 19 :   0.2308 0.0000 0.2308  plane waves:     536
 k-point 20 :   0.2436 0.0000 0.2436  plane waves:     536
 k-point 21 :   0.2564 0.0000 0.2564  plane waves:     540
 k-point 22 :   0.2692 0.0000 0.2692  plane waves:     548
 k-point 23 :   0.2821 0.0000 0.2821  plane waves:     548
 k-point 24 :   0.2949 0.0000 0.2949  plane waves:     548
 k-point 25 :   0.3077 0.0000 0.3077  plane waves:     548
 k-point 26 :   0.3205 0.0000 0.3205  plane waves:     548
 k-point 27 :   0.3333 0.0000 0.3333  plane waves:     540
 k-point 28 :   0.3462 0.0000 0.3462  plane waves:     544
 k-point 29 :   0.3590 0.0000 0.3590  plane waves:     544
 k-point 30 :   0.3718 0.0000 0.3718  plane waves:     544
 k-point 31 :   0.3846 0.0000 0.3846  plane waves:     532
 k-point 32 :   0.3974 0.0000 0.3974  plane waves:     532
 k-point 33 :   0.4103 0.0000 0.4103  plane waves:     532
 k-point 34 :   0.4231 0.0000 0.4231  plane waves:     540
 k-point 35 :   0.4359 0.0000 0.4359  plane waves:     540
 k-point 36 :   0.4487 0.0000 0.4487  plane waves:     536
 k-point 37 :   0.4615 0.0000 0.4615  plane waves:     528
 k-point 38 :   0.4744 0.0000 0.4744  plane waves:     524
 k-point 39 :   0.4872 0.0000 0.4872  plane waves:     524
 k-point 40 :   0.5000 0.0000 0.5000  plane waves:     524
 k-point 41 :   0.5000 0.0000 0.5000  plane waves:     524
 k-point 42 :   0.5000 0.0064 0.5064  plane waves:     524
 k-point 43 :   0.5000 0.0128 0.5128  plane waves:     524
 k-point 44 :   0.5000 0.0192 0.5192  plane waves:     524
 k-point 45 :   0.5000 0.0256 0.5256  plane waves:     524
 k-point 46 :   0.5000 0.0321 0.5321  plane waves:     526
 k-point 47 :   0.5000 0.0385 0.5385  plane waves:     530
 k-point 48 :   0.5000 0.0449 0.5449  plane waves:     530
 k-point 49 :   0.5000 0.0513 0.5513  plane waves:     530
 k-point 50 :   0.5000 0.0577 0.5577  plane waves:     532
 k-point 51 :   0.5000 0.0641 0.5641  plane waves:     532
 k-point 52 :   0.5000 0.0705 0.5705  plane waves:     536
 k-point 53 :   0.5000 0.0769 0.5769  plane waves:     536
 k-point 54 :   0.5000 0.0833 0.5833  plane waves:     532
 k-point 55 :   0.5000 0.0897 0.5897  plane waves:     532
 k-point 56 :   0.5000 0.0962 0.5962  plane waves:     536
 k-point 57 :   0.5000 0.1026 0.6026  plane waves:     536
 k-point 58 :   0.5000 0.1090 0.6090  plane waves:     536
 k-point 59 :   0.5000 0.1154 0.6154  plane waves:     536
 k-point 60 :   0.5000 0.1218 0.6218  plane waves:     536
 k-point 61 :   0.5000 0.1282 0.6282  plane waves:     536
 k-point 62 :   0.5000 0.1346 0.6346  plane waves:     530
 k-point 63 :   0.5000 0.1410 0.6410  plane waves:     530
 k-point 64 :   0.5000 0.1474 0.6474  plane waves:     530
 k-point 65 :   0.5000 0.1538 0.6538  plane waves:     534
 k-point 66 :   0.5000 0.1603 0.6603  plane waves:     534
 k-point 67 :   0.5000 0.1667 0.6667  plane waves:     534
 k-point 68 :   0.5000 0.1731 0.6731  plane waves:     530
 k-point 69 :   0.5000 0.1795 0.6795  plane waves:     530
 k-point 70 :   0.5000 0.1859 0.6859  plane waves:     530
 k-point 71 :   0.5000 0.1923 0.6923  plane waves:     526
 k-point 72 :   0.5000 0.1987 0.6987  plane waves:     526
 k-point 73 :   0.5000 0.2051 0.7051  plane waves:     526
 k-point 74 :   0.5000 0.2115 0.7115  plane waves:     526
 k-point 75 :   0.5000 0.2179 0.7179  plane waves:     524
 k-point 76 :   0.5000 0.2244 0.7244  plane waves:     524
 k-point 77 :   0.5000 0.2308 0.7308  plane waves:     524
 k-point 78 :   0.5000 0.2372 0.7372  plane waves:     524
 k-point 79 :   0.5000 0.2436 0.7436  plane waves:     524
 k-point 80 :   0.5000 0.2500 0.7500  plane waves:     524
 k-point 81 :   0.5000 0.2500 0.7500  plane waves:     524
 k-point 82 :   0.4968 0.2532 0.7500  plane waves:     524
 k-point 83 :   0.4936 0.2564 0.7500  plane waves:     524
 k-point 84 :   0.4904 0.2596 0.7500  plane waves:     524
 k-point 85 :   0.4872 0.2628 0.7500  plane waves:     524
 k-point 86 :   0.4840 0.2660 0.7500  plane waves:     524
 k-point 87 :   0.4808 0.2692 0.7500  plane waves:     524
 k-point 88 :   0.4776 0.2724 0.7500  plane waves:     524
 k-point 89 :   0.4744 0.2756 0.7500  plane waves:     529
 k-point 90 :   0.4712 0.2788 0.7500  plane waves:     529
 k-point 91 :   0.4679 0.2821 0.7500  plane waves:     529
 k-point 92 :   0.4647 0.2853 0.7500  plane waves:     529
 k-point 93 :   0.4615 0.2885 0.7500  plane waves:     529
 k-point 94 :   0.4583 0.2917 0.7500  plane waves:     529
 k-point 95 :   0.4551 0.2949 0.7500  plane waves:     531
 k-point 96 :   0.4519 0.2981 0.7500  plane waves:     531
 k-point 97 :   0.4487 0.3013 0.7500  plane waves:     531
 k-point 98 :   0.4455 0.3045 0.7500  plane waves:     531
 k-point 99 :   0.4423 0.3077 0.7500  plane waves:     531
 k-point ** :   0.4391 0.3109 0.7500  plane waves:     531
 k-point ** :   0.4359 0.3141 0.7500  plane waves:     532
 k-point ** :   0.4327 0.3173 0.7500  plane waves:     532
 k-point ** :   0.4295 0.3205 0.7500  plane waves:     532
 k-point ** :   0.4263 0.3237 0.7500  plane waves:     532
 k-point ** :   0.4231 0.3269 0.7500  plane waves:     530
 k-point ** :   0.4199 0.3301 0.7500  plane waves:     530
 k-point ** :   0.4167 0.3333 0.7500  plane waves:     530
 k-point ** :   0.4135 0.3365 0.7500  plane waves:     530
 k-point ** :   0.4103 0.3397 0.7500  plane waves:     530
 k-point ** :   0.4071 0.3429 0.7500  plane waves:     534
 k-point ** :   0.4038 0.3462 0.7500  plane waves:     534
 k-point ** :   0.4006 0.3494 0.7500  plane waves:     534
 k-point ** :   0.3974 0.3526 0.7500  plane waves:     534
 k-point ** :   0.3942 0.3558 0.7500  plane waves:     534
 k-point ** :   0.3910 0.3590 0.7500  plane waves:     534
 k-point ** :   0.3878 0.3622 0.7500  plane waves:     534
 k-point ** :   0.3846 0.3654 0.7500  plane waves:     534
 k-point ** :   0.3814 0.3686 0.7500  plane waves:     534
 k-point ** :   0.3782 0.3718 0.7500  plane waves:     534
 k-point ** :   0.3750 0.3750 0.7500  plane waves:     542

 maximum and minimum number of plane-waves per node :       144      120

 maximum number of plane-waves:       548
 maximum index in each direction: 
   IXMAX=    5   IYMAX=    5   IZMAX=    5
   IXMIN=   -6   IYMIN=   -6   IZMIN=   -6


 parallel 3D FFT for wavefunctions:
    minimum data exchange during FFTs selected (reduces bandwidth)
 parallel 3D FFT for charge:
    minimum data exchange during FFTs selected (reduces bandwidth)


 total amount of memory used by VASP MPI-rank0    32637. kBytes
=======================================================================

   base      :      30000. kBytes
   nonl-proj :       1108. kBytes
   fftplans  :        261. kBytes
   grid      :        367. kBytes
   one-center:          3. kBytes
   wavefun   :        898. kBytes
 
     INWAV:  cpu time    0.0000: real time    0.0000
 initial charge density was supplied:
 number of electron       3.0000000 magnetization 
 keeping initial charge density in first step


--------------------------------------------------------------------------------------------------------


 Maximum index for augmentation-charges         1135 (set IRDMAX)


--------------------------------------------------------------------------------------------------------


 First call to EWALD:  gamma=   0.701
 Maximum number of real-space cells 3x 3x 3
 Maximum number of reciprocal cells 3x 3x 3

    FEWALD:  cpu time    0.0014: real time    0.0014


--------------------------------------- Iteration      1(   1)  ---------------------------------------


    POTLOK:  cpu time    0.0049: real time    0.0149
    SETDIJ:  cpu time    0.0022: real time    0.0022
     EDDAV:  cpu time    0.3768: real time    0.3780
       DOS:  cpu time    0.0011: real time    0.0011
    --------------------------------------------
      LOOP:  cpu time    0.3850: real time    0.3963

 eigenvalue-minimisations  :  4332
 total energy-change (2. order) : 0.3643034E+01  (-0.9897395E+02)
 number of electron       3.0000000 magnetization 
 augmentation part        3.0000000 magnetization 

 Free energy of the ion-electron system (eV)
  ---------------------------------------------------
  alpha Z        PSCENC =        -0.20818141
  Ewald energy   TEWEN  =       -74.06738932
  -Hartree energ DENC   =        -0.10815276
  -exchange      EXHF   =         0.00000000
  -V(xc)+E(xc)   XCENC  =       -25.18294873
  PAW double counting   =       151.33145409     -120.12288758
  entropy T*S    EENTRO =        -0.00017091
  eigenvalues    EBANDS =        18.83409231
  atomic energy  EATOM  =        53.16721811
  Solvation  Ediel_sol  =         0.00000000
  ---------------------------------------------------
  free energy    TOTEN  =         3.64303380 eV

  energy without entropy =        3.64320471  energy(sigma->0) =        3.64311926


--------------------------------------------------------------------------------------------------------




--------------------------------------- Iteration      1(   2)  ---------------------------------------


     EDDAV:  cpu time    0.5160: real time    0.5187
       DOS:  cpu time    0.0010: real time    0.0010
    --------------------------------------------
      LOOP:  cpu time    0.5170: real time    0.5197

 eigenvalue-minimisations  :  6162
 total energy-change (2. order) :-0.3592204E+01  (-0.3462003E+01)
 number of electron       3.0000000 magnetization 
 augmentation part        3.0000000 magnetization 

 Free energy of the ion-electron system (eV)
  ---------------------------------------------------
  alpha Z        PSCENC =        -0.20818141
  Ewald energy   TEWEN  =       -74.06738932
  -Hartree energ DENC   =        -0.10815276
  -exchange      EXHF   =         0.00000000
  -V(xc)+E(xc)   XCENC  =       -25.18294873
  PAW double counting   =       151.33145409     -120.12288758
  entropy T*S    EENTRO =        -0.00035696
  eigenvalues    EBANDS =        15.24207421
  atomic energy  EATOM  =        53.16721811
  Solvation  Ediel_sol  =         0.00000000
  ---------------------------------------------------
  free energy    TOTEN  =         0.05082964 eV

  energy without entropy =        0.05118661  energy(sigma->0) =        0.05100813


--------------------------------------------------------------------------------------------------------




--------------------------------------- Iteration      1(   3)  ---------------------------------------


     EDDAV:  cpu time    0.4862: real time    0.4876
       DOS:  cpu time    0.0009: real time    0.0009
    --------------------------------------------
      LOOP:  cpu time    0.4871: real time    0.4885

 eigenvalue-minimisations  :  5826
 total energy-change (2. order) :-0.2749843E-01  (-0.2745717E-01)
 number of electron       3.0000000 magnetization 
 augmentation part        3.0000000 magnetization 

 Free energy of the ion-electron system (eV)
  ---------------------------------------------------
  alpha Z        PSCENC =        -0.20818141
  Ewald energy   TEWEN  =       -74.06738932
  -Hartree energ DENC   =        -0.10815276
  -exchange      EXHF   =         0.00000000
  -V(xc)+E(xc)   XCENC  =       -25.18294873
  PAW double counting   =       151.33145409     -120.12288758
  entropy T*S    EENTRO =        -0.00033401
  eigenvalues    EBANDS =        15.21455282
  atomic energy  EATOM  =        53.16721811
  Solvation  Ediel_sol  =         0.00000000
  ---------------------------------------------------
  free energy    TOTEN  =         0.02333121 eV

  energy without entropy =        0.02366522  energy(sigma->0) =        0.02349821


--------------------------------------------------------------------------------------------------------




--------------------------------------- Iteration      1(   4)  ---------------------------------------


     EDDAV:  cpu time    0.4707: real time    0.4720
       DOS:  cpu time    0.0010: real time    0.0010
    --------------------------------------------
      LOOP:  cpu time    0.4717: real time    0.4730

 eigenvalue-minimisations  :  5706
 total energy-change (2. order) :-0.3744616E-04  (-0.3744353E-04)
 number of electron       3.0000000 magnetization 
 augmentation part        3.0000000 magnetization 

 Free energy of the ion-electron system (eV)
  ---------------------------------------------------
  alpha Z        PSCENC =        -0.20818141
  Ewald energy   TEWEN  =       -74.06738932
  -Hartree energ DENC   =        -0.10815276
  -exchange      EXHF   =         0.00000000
  -V(xc)+E(xc)   XCENC  =       -25.18294873
  PAW double counting   =       151.33145409     -120.12288758
  entropy T*S    EENTRO =        -0.00033423
  eigenvalues    EBANDS =        15.21451560
  atomic energy  EATOM  =        53.16721811
  Solvation  Ediel_sol  =         0.00000000
  ---------------------------------------------------
  free energy    TOTEN  =         0.02329376 eV

  energy without entropy =        0.02362800  energy(sigma->0) =        0.02346088


--------------------------------------------------------------------------------------------------------




--------------------------------------- Iteration      1(   5)  ---------------------------------------


     EDDAV:  cpu time    0.4923: real time    0.4932
       DOS:  cpu time    0.0009: real time    0.0009
    --------------------------------------------
      LOOP:  cpu time    0.4931: real time    0.4941

 eigenvalue-minimisations  :  6000
 total energy-change (2. order) :-0.8278569E-07  (-0.8189053E-07)
 number of electron       3.0000000 magnetization 
 augmentation part        3.0000000 magnetization 

 Free energy of the ion-electron system (eV)
  ---------------------------------------------------
  alpha Z        PSCENC =        -0.20818141
  Ewald energy   TEWEN  =       -74.06738932
  -Hartree energ DENC   =        -0.10815276
  -exchange      EXHF   =         0.00000000
  -V(xc)+E(xc)   XCENC  =       -25.18294873
  PAW double counting   =       151.33145409     -120.12288758
  entropy T*S    EENTRO =        -0.00033424
  eigenvalues    EBANDS =        15.21451552
  atomic energy  EATOM  =        53.16721811
  Solvation  Ediel_sol  =         0.00000000
  ---------------------------------------------------
  free energy    TOTEN  =         0.02329368 eV

  energy without entropy =        0.02362792  energy(sigma->0) =        0.02346080


--------------------------------------------------------------------------------------------------------




--------------------------------------- Iteration      1(   6)  ---------------------------------------


     EDDAV:  cpu time    0.5213: real time    0.5234
       DOS:  cpu time    0.0009: real time    0.0009
    --------------------------------------------
      LOOP:  cpu time    0.5221: real time    0.5243

 eigenvalue-minimisations  :  6294
 total energy-change (2. order) :-0.1149658E-09  (-0.2115262E-09)
 number of electron       3.0000000 magnetization 
 augmentation part        3.0000000 magnetization 

 Free energy of the ion-electron system (eV)
  ---------------------------------------------------
  alpha Z        PSCENC =        -0.20818141
  Ewald energy   TEWEN  =       -74.06738932
  -Hartree energ DENC   =        -0.10815276
  -exchange      EXHF   =         0.00000000
  -V(xc)+E(xc)   XCENC  =       -25.18294873
  PAW double counting   =       151.33145409     -120.12288758
  entropy T*S    EENTRO =        -0.00033424
  eigenvalues    EBANDS =        15.21451552
  atomic energy  EATOM  =        53.16721811
  Solvation  Ediel_sol  =         0.00000000
  ---------------------------------------------------
  free energy    TOTEN  =         0.02329368 eV

  energy without entropy =        0.02362792  energy(sigma->0) =        0.02346080


--------------------------------------------------------------------------------------------------------




 average (electrostatic) potential at core
  the test charge radii are     1.0406
  (the norm of the test charge is              1.0000)
       1 -72.0516
 
 
 
 E-fermi :   7.3349     XC(G=0): -10.3388     alpha+bet :-15.2138


 k-point     1 :       0.0000    0.0000    0.0000
  band No.  band energies     occupation 
      1      -3.1002      2.00000
      2      20.9048      0.00000
      3      20.9048      0.00000
      4      20.9048      0.00000
      5      22.5672      0.00000
      6      22.5672      0.00000
      7      22.5672      0.00000
      8      24.8342      0.00000
      9      27.7899      0.00000
     10      27.7899      0.00000
     11      30.7822      0.00000
     12      33.1543      0.00000
     13      33.1543      0.00000
     14      33.1543      0.00000
     15      42.1726      0.00000
     16      56.6594      0.00000
     17      56.6599      0.00000
     18      56.8679      0.00000

 k-point     2 :       0.0128    0.0000    0.0128
  band No.  band energies     occupation 
      1      -3.0942      2.00000
      2      20.8192      0.00000
      3      20.8192      0.00000
      4      20.8541      0.00000
      5      22.5520      0.00000
      6      22.6617      0.00000
      7      22.6617      0.00000
      8      24.8969      0.00000
      9      27.7062      0.00000
     10      27.7955      0.00000
     11      30.7591      0.00000
     12      33.1610      0.00000
     13      33.1610      0.00000
     14      33.2749      0.00000
     15      42.1963      0.00000
     16      56.6417      0.00000
     17      56.6508      0.00000
     18      56.8124      0.00000

 k-point     3 :       0.0256    0.0000    0.0256
  band No.  band energies     occupation 
      1      -3.0761      2.00000
      2      20.6043      0.00000
      3      20.6043      0.00000
      4      20.7109      0.00000
      5      22.5069      0.00000
      6      22.9035      0.00000
      7      22.9035      0.00000
      8      25.0764      0.00000
      9      27.4629      0.00000
     10      27.8123      0.00000
     11      30.7198      0.00000
     12      33.1813      0.00000
     13      33.1813      0.00000
     14      33.5980      0.00000
     15      42.2679      0.00000
     16      56.5860      0.00000
     17      56.6278      0.00000
     18      56.7667      0.00000

 k-point     4 :       0.0385    0.0000    0.0385
  band No.  band energies     occupation 
      1      -3.0458      2.00000
      2      20.3243      0.00000
      3      20.3243      0.00000
      4      20.4960      0.00000
      5      22.4334      0.00000
      6      23.2282      0.00000
      7      23.2282      0.00000
      8      25.3517      0.00000
      9      27.0831      0.00000
     10      27.8403      0.00000
     11      30.7114      0.00000
     12      33.2151      0.00000
     13      33.2151      0.00000
     14      34.0507      0.00000
     15      42.3885      0.00000
     16      56.5161      0.00000
     17      56.5786      0.00000
     18      56.6277      0.00000

 k-point     5 :       0.0513    0.0000    0.0513
  band No.  band energies     occupation 
      1      -3.0035      2.00000
      2      20.0167      0.00000
      3      20.0167      0.00000
      4      20.2318      0.00000
      5      22.3338      0.00000
      6      23.5980      0.00000
      7      23.5980      0.00000
      8      25.7004      0.00000
      9      26.5992      0.00000
     10      27.8794      0.00000
     11      30.7552      0.00000
     12      33.2627      0.00000
     13      33.2627      0.00000
     14      34.5753      0.00000
     15      42.5596      0.00000
     16      56.4349      0.00000
     17      56.5056      0.00000
     18      56.7997      0.00000

 k-point     6 :       0.0641    0.0000    0.0641
  band No.  band energies     occupation 
      1      -2.9491      2.00000
      2      19.6992      0.00000
      3      19.6992      0.00000
      4      19.9366      0.00000
      5      22.2107      0.00000
      6      23.9950      0.00000
      7      23.9950      0.00000
      8      26.0427      0.00000
      9      26.1044      0.00000
     10      27.9297      0.00000
     11      30.8514      0.00000
     12      33.3244      0.00000
     13      33.3244      0.00000
     14      35.1348      0.00000
     15      42.7837      0.00000
     16      56.3460      0.00000
     17      56.3924      0.00000
     18      56.4031      0.00000

 k-point     7 :       0.0769    0.0000    0.0769
  band No.  band energies     occupation 
      1      -2.8827      2.00000
      2      19.3804      0.00000
      3      19.3804      0.00000
      4      19.6234      0.00000
      5      22.0673      0.00000
      6      24.4102      0.00000
      7      24.4102      0.00000
      8      25.4383      0.00000
      9      26.5504      0.00000
     10      27.9912      0.00000
     11      30.9925      0.00000
     12      33.4004      0.00000
     13      33.4004      0.00000
     14      35.7061      0.00000
     15      43.0630      0.00000
     16      56.2302      0.00000
     17      56.2326      0.00000
     18      56.2581      0.00000

 k-point     8 :       0.0897    0.0000    0.0897
  band No.  band energies     occupation 
      1      -2.8042      2.00000
      2      19.0646      0.00000
      3      19.0646      0.00000
      4      19.3010      0.00000
      5      21.9067      0.00000
      6      24.8029      0.00000
      7      24.8387      0.00000
      8      24.8387      0.00000
      9      27.0298      0.00000
     10      28.0637      0.00000
     11      31.1708      0.00000
     12      33.4913      0.00000
     13      33.4913      0.00000
     14      36.2740      0.00000
     15      43.4000      0.00000
     16      55.9977      0.00000
     17      56.0167      0.00000
     18      56.1630      0.00000

 k-point     9 :       0.1026    0.0000    0.1026
  band No.  band energies     occupation 
      1      -2.7137      2.00000
      2      18.7543      0.00000
      3      18.7543      0.00000
      4      18.9755      0.00000
      5      21.7319      0.00000
      6      24.1483      0.00000
      7      25.2775      0.00000
      8      25.2775      0.00000
      9      27.5364      0.00000
     10      28.1472      0.00000
     11      31.3796      0.00000
     12      33.5975      0.00000
     13      33.5975      0.00000
     14      36.8282      0.00000
     15      43.7966      0.00000
     16      55.6903      0.00000
     17      55.6916      0.00000
     18      56.0641      0.00000

 k-point    10 :       0.1154    0.0000    0.1154
  band No.  band energies     occupation 
      1      -2.6113      2.00000
      2      18.4510      0.00000
      3      18.4510      0.00000
      4      18.6510      0.00000
      5      21.5459      0.00000
      6      23.4820      0.00000
      7      25.7242      0.00000
      8      25.7242      0.00000
      9      28.0662      0.00000
     10      28.2417      0.00000
     11      31.6139      0.00000
     12      33.7197      0.00000
     13      33.7197      0.00000
     14      37.3617      0.00000
     15      44.2533      0.00000
     16      55.3086      0.00000
     17      55.3090      0.00000
     18      55.9649      0.00000

 k-point    11 :       0.1282    0.0000    0.1282
  band No.  band energies     occupation 
      1      -2.4968      2.00000
      2      18.1557      0.00000
      3      18.1557      0.00000
      4      18.3301      0.00000
      5      21.3511      0.00000
      6      22.8096      0.00000
      7      26.1771      0.00000
      8      26.1771      0.00000
      9      28.3471      0.00000
     10      28.6164      0.00000
     11      31.8696      0.00000
     12      33.8588      0.00000
     13      33.8588      0.00000
     14      37.8707      0.00000
     15      44.7697      0.00000
     16      54.8663      0.00000
     17      54.8739      0.00000
     18      55.8788      0.00000

 k-point    12 :       0.1410    0.0000    0.1410
  band No.  band energies     occupation 
      1      -2.3704      2.00000
      2      17.8690      0.00000
      3      17.8690      0.00000
      4      18.0149      0.00000
      5      21.1499      0.00000
      6      22.1347      0.00000
      7      26.6344      0.00000
      8      26.6344      0.00000
      9      28.4634      0.00000
     10      29.1851      0.00000
     11      32.1435      0.00000
     12      34.0155      0.00000
     13      34.0155      0.00000
     14      38.3536      0.00000
     15      45.3432      0.00000
     16      54.3804      0.00000
     17      54.3826      0.00000
     18      55.7772      0.00000

 k-point    13 :       0.1538    0.0000    0.1538
  band No.  band energies     occupation 
      1      -2.2321      2.00000
      2      17.5913      0.00000
      3      17.5913      0.00000
      4      17.7068      0.00000
      5      20.9436      0.00000
      6      21.4608      0.00000
      7      27.0945      0.00000
      8      27.0945      0.00000
      9      28.5903      0.00000
     10      29.7707      0.00000
     11      32.4333      0.00000
     12      34.1909      0.00000
     13      34.1909      0.00000
     14      38.8110      0.00000
     15      45.9701      0.00000
     16      53.8659      0.00000
     17      53.8659      0.00000
     18      55.0463      0.00000

 k-point    14 :       0.1667    0.0000    0.1667
  band No.  band energies     occupation 
      1      -2.0820      2.00000
      2      17.3229      0.00000
      3      17.3229      0.00000
      4      17.4068      0.00000
      5      20.7172      0.00000
      6      20.8067      0.00000
      7      27.5557      0.00000
      8      27.5557      0.00000
      9      28.7279      0.00000
     10      30.3723      0.00000
     11      32.7368      0.00000
     12      34.3863      0.00000
     13      34.3863      0.00000
     14      39.2447      0.00000
     15      46.6453      0.00000
     16      53.3338      0.00000
     17      53.3340      0.00000
     18      54.2903      0.00000

 k-point    15 :       0.1795    0.0000    0.1795
  band No.  band energies     occupation 
      1      -1.9200      2.00000
      2      17.0641      0.00000
      3      17.0641      0.00000
      4      17.1158      0.00000
      5      20.1114      0.00000
      6      20.5350      0.00000
      7      28.0161      0.00000
      8      28.0161      0.00000
      9      28.8759      0.00000
     10      30.9890      0.00000
     11      33.0527      0.00000
     12      34.6029      0.00000
     13      34.6029      0.00000
     14      39.6573      0.00000
     15      47.3630      0.00000
     16      52.7922      0.00000
     17      52.7924      0.00000
     18      53.5428      0.00000

 k-point    16 :       0.1923    0.0000    0.1923
  band No.  band energies     occupation 
      1      -1.7462      2.00000
      2      16.8151      0.00000
      3      16.8151      0.00000
      4      16.8342      0.00000
      5      19.4481      0.00000
      6      20.3260      0.00000
      7      28.4739      0.00000
      8      28.4739      0.00000
      9      29.0342      0.00000
     10      31.6202      0.00000
     11      33.3795      0.00000
     12      34.8421      0.00000
     13      34.8421      0.00000
     14      40.0519      0.00000
     15      48.1173      0.00000
     16      52.2468      0.00000
     17      52.2468      0.00000
     18      52.8093      0.00000

 k-point    17 :       0.2051    0.0000    0.2051
  band No.  band energies     occupation 
      1      -1.5607      2.00000
      2      16.5627      0.00000
      3      16.5759      0.00000
      4      16.5759      0.00000
      5      18.7892      0.00000
      6      20.1202      0.00000
      7      28.9270      0.00000
      8      28.9270      0.00000
      9      29.2027      0.00000
     10      32.2654      0.00000
     11      33.7164      0.00000
     12      35.1056      0.00000
     13      35.1056      0.00000
     14      40.4310      0.00000
     15      48.9019      0.00000
     16      51.7016      0.00000
     17      51.7016      0.00000
     18      52.0885      0.00000

 k-point    18 :       0.2179    0.0000    0.2179
  band No.  band energies     occupation 
      1      -1.3636      2.00000
      2      16.3015      0.00000
      3      16.3467      0.00000
      4      16.3467      0.00000
      5      18.1362      0.00000
      6      19.9179      0.00000
      7      29.3736      0.00000
      8      29.3736      0.00000
      9      29.3811      0.00000
     10      32.9242      0.00000
     11      34.0626      0.00000
     12      35.3946      0.00000
     13      35.3946      0.00000
     14      40.7970      0.00000
     15      49.7108      0.00000
     16      51.1598      0.00000
     17      51.1598      0.00000
     18      51.3806      0.00000

 k-point    19 :       0.2308    0.0000    0.2308
  band No.  band energies     occupation 
      1      -1.1548      2.00000
      2      16.0509      0.00000
      3      16.1274      0.00000
      4      16.1274      0.00000
      5      17.4899      0.00000
      6      19.7197      0.00000
      7      29.5693      0.00000
      8      29.8115      0.00000
      9      29.8115      0.00000
     10      33.5964      0.00000
     11      34.4174      0.00000
     12      35.7107      0.00000
     13      35.7107      0.00000
     14      41.1515      0.00000
     15      50.5378      0.00000
     16      50.6238      0.00000
     17      50.6238      0.00000
     18      50.6861      0.00000

 k-point    20 :       0.2436    0.0000    0.2436
  band No.  band energies     occupation 
      1      -0.9344      2.00000
      2      15.8112      0.00000
      3      15.9183      0.00000
      4      15.9183      0.00000
      5      16.8510      0.00000
      6      19.5265      0.00000
      7      29.7668      0.00000
      8      30.2390      0.00000
      9      30.2390      0.00000
     10      34.2816      0.00000
     11      34.7803      0.00000
     12      36.0550      0.00000
     13      36.0550      0.00000
     14      41.4955      0.00000
     15      50.0053      0.00000
     16      50.0958      0.00000
     17      50.0958      0.00000
     18      51.3765      0.00000

 k-point    21 :       0.2564    0.0000    0.2564
  band No.  band energies     occupation 
      1      -0.7025      2.00000
      2      15.5825      0.00000
      3      15.7193      0.00000
      4      15.7193      0.00000
      5      16.2198      0.00000
      6      19.3390      0.00000
      7      29.9733      0.00000
      8      30.6543      0.00000
      9      30.6543      0.00000
     10      34.9796      0.00000
     11      35.1509      0.00000
     12      36.4281      0.00000
     13      36.4281      0.00000
     14      41.8295      0.00000
     15      49.3386      0.00000
     16      49.5776      0.00000
     17      49.5776      0.00000
     18      52.2198      0.00000

 k-point    22 :       0.2692    0.0000    0.2692
  band No.  band energies     occupation 
      1      -0.4592      2.00000
      2      15.3649      0.00000
      3      15.5305      0.00000
      4      15.5305      0.00000
      5      15.5966      0.00000
      6      19.1580      0.00000
      7      30.1885      0.00000
      8      31.0564      0.00000
      9      31.0564      0.00000
     10      35.5288      0.00000
     11      35.6902      0.00000
     12      36.8304      0.00000
     13      36.8304      0.00000
     14      42.1533      0.00000
     15      48.6865      0.00000
     16      49.0710      0.00000
     17      49.0710      0.00000
     18      53.0540      0.00000

 k-point    23 :       0.2821    0.0000    0.2821
  band No.  band energies     occupation 
      1      -0.2045      2.00000
      2      14.9819      0.00000
      3      15.1587      0.00000
      4      15.3518      0.00000
      5      15.3518      0.00000
      6      18.9839      0.00000
      7      30.4119      0.00000
      8      31.4442      0.00000
      9      31.4442      0.00000
     10      35.9136      0.00000
     11      36.4133      0.00000
     12      37.2614      0.00000
     13      37.2614      0.00000
     14      42.4661      0.00000
     15      48.0497      0.00000
     16      48.5781      0.00000
     17      48.5782      0.00000
     18      53.8501      0.00000

 k-point    24 :       0.2949    0.0000    0.2949
  band No.  band energies     occupation 
      1       0.0614      2.00000
      2      14.3759      0.00000
      3      14.9640      0.00000
      4      15.1834      0.00000
      5      15.1834      0.00000
      6      18.8173      0.00000
      7      30.6428      0.00000
      8      31.8173      0.00000
      9      31.8173      0.00000
     10      36.3050      0.00000
     11      37.1487      0.00000
     12      37.7199      0.00000
     13      37.7199      0.00000
     14      42.7664      0.00000
     15      47.4286      0.00000
     16      48.1010      0.00000
     17      48.1010      0.00000
     18      53.9309      0.00000

 k-point    25 :       0.3077    0.0000    0.3077
  band No.  band energies     occupation 
      1       0.3385      2.00000
      2      13.7788      0.00000
      3      14.7807      0.00000
      4      15.0252      0.00000
      5      15.0252      0.00000
      6      18.6588      0.00000
      7      30.8806      0.00000
      8      32.1754      0.00000
      9      32.1754      0.00000
     10      36.7028      0.00000
     11      37.8962      0.00000
     12      38.2037      0.00000
     13      38.2037      0.00000
     14      43.0523      0.00000
     15      46.8241      0.00000
     16      47.6423      0.00000
     17      47.6423      0.00000
     18      53.7427      0.00000

 k-point    26 :       0.3205    0.0000    0.3205
  band No.  band energies     occupation 
      1       0.6267      2.00000
      2      13.1908      0.00000
      3      14.6090      0.00000
      4      14.8771      0.00000
      5      14.8771      0.00000
      6      18.5087      0.00000
      7      31.1245      0.00000
      8      32.5189      0.00000
      9      32.5189      0.00000
     10      37.1064      0.00000
     11      38.6556      0.00000
     12      38.7097      0.00000
     13      38.7097      0.00000
     14      43.3209      0.00000
     15      46.2371      0.00000
     16      47.2053      0.00000
     17      47.2053      0.00000
     18      53.5275      0.00000

 k-point    27 :       0.3333    0.0000    0.3333
  band No.  band energies     occupation 
      1       0.9258      2.00000
      2      12.6123      0.00000
      3      14.4489      0.00000
      4      14.7393      0.00000
      5      14.7393      0.00000
      6      18.3675      0.00000
      7      31.3733      0.00000
      8      32.8478      0.00000
      9      32.8478      0.00000
     10      37.5155      0.00000
     11      39.2331      0.00000
     12      39.2331      0.00000
     13      39.4269      0.00000
     14      43.5690      0.00000
     15      45.6686      0.00000
     16      46.7946      0.00000
     17      46.7946      0.00000
     18      53.2971      0.00000

 k-point    28 :       0.3462    0.0000    0.3462
  band No.  band energies     occupation 
      1       1.2358      2.00000
      2      12.0435      0.00000
      3      14.3006      0.00000
      4      14.6118      0.00000
      5      14.6118      0.00000
      6      18.2355      0.00000
      7      31.6259      0.00000
      8      33.1625      0.00000
      9      33.1625      0.00000
     10      37.9296      0.00000
     11      39.7673      0.00000
     12      39.7673      0.00000
     13      40.2097      0.00000
     14      43.7924      0.00000
     15      45.1199      0.00000
     16      46.4166      0.00000
     17      46.4166      0.00000
     18      53.0559      0.00000

 k-point    29 :       0.3590    0.0000    0.3590
  band No.  band energies     occupation 
      1       1.5563      2.00000
      2      11.4845      0.00000
      3      14.1640      0.00000
      4      14.4944      0.00000
      5      14.4944      0.00000
      6      18.1129      0.00000
      7      31.8806      0.00000
      8      33.4629      0.00000
      9      33.4629      0.00000
     10      38.3479      0.00000
     11      40.3025      0.00000
     12      40.3025      0.00000
     13      41.0040      0.00000
     14      43.9862      0.00000
     15      44.5926      0.00000
     16      46.0811      0.00000
     17      46.0811      0.00000
     18      52.8088      0.00000

 k-point    30 :       0.3718    0.0000    0.3718
  band No.  band energies     occupation 
      1       1.8872      2.00000
      2      10.9358      0.00000
      3      14.0391      0.00000
      4      14.3873      0.00000
      5      14.3873      0.00000
      6      18.0002      0.00000
      7      32.1356      0.00000
      8      33.7489      0.00000
      9      33.7489      0.00000
     10      38.7698      0.00000
     11      40.8238      0.00000
     12      40.8238      0.00000
     13      41.8094      0.00000
     14      44.0887      0.00000
     15      44.1450      0.00000
     16      45.8031      0.00000
     17      45.8031      0.00000
     18      52.5625      0.00000

 k-point    31 :       0.3846    0.0000    0.3846
  band No.  band energies     occupation 
      1       2.2282      2.00000
      2      10.3976      0.00000
      3      13.9261      0.00000
      4      14.2904      0.00000
      5      14.2904      0.00000
      6      17.8975      0.00000
      7      32.3885      0.00000
      8      34.0198      0.00000
      9      34.0198      0.00000
     10      39.1941      0.00000
     11      41.3082      0.00000
     12      41.3082      0.00000
     13      42.6258      0.00000
     14      43.6106      0.00000
     15      44.2629      0.00000
     16      45.6059      0.00000
     17      45.6059      0.00000
     18      52.3248      0.00000

 k-point    32 :       0.3974    0.0000    0.3974
  band No.  band energies     occupation 
      1       2.5788      2.00000
      2       9.8704      0.00000
      3      13.8249      0.00000
      4      14.2037      0.00000
      5      14.2037      0.00000
      6      17.8050      0.00000
      7      32.6363      0.00000
      8      34.2744      0.00000
      9      34.2744      0.00000
     10      39.6198      0.00000
     11      41.7225      0.00000
     12      41.7225      0.00000
     13      43.1611      0.00000
     14      43.4528      0.00000
     15      44.3341      0.00000
     16      45.5236      0.00000
     17      45.5236      0.00000
     18      52.1044      0.00000

 k-point    33 :       0.4103    0.0000    0.4103
  band No.  band energies     occupation 
      1       2.9384      2.00000
      2       9.3549      0.00000
      3      13.7355      0.00000
      4      14.1272      0.00000
      5      14.1272      0.00000
      6      17.7229      0.00000
      7      32.8755      0.00000
      8      34.5109      0.00000
      9      34.5109      0.00000
     10      40.0452      0.00000
     11      42.0291      0.00000
     12      42.0291      0.00000
     13      42.7441      0.00000
     14      44.2898      0.00000
     15      44.3534      0.00000
     16      45.5950      0.00000
     17      45.5950      0.00000
     18      51.9096      0.00000

 k-point    34 :       0.4231    0.0000    0.4231
  band No.  band energies     occupation 
      1       3.3061      2.00000
      2       8.8521      0.00000
      3      13.6580      0.00000
      4      14.0609      0.00000
      5      14.0609      0.00000
      6      17.6515      0.00000
      7      33.1015      0.00000
      8      34.7268      0.00000
      9      34.7268      0.00000
     10      40.4682      0.00000
     11      42.2063      0.00000
     12      42.2063      0.00000
     13      42.3638      0.00000
     14      44.3176      0.00000
     15      45.1363      0.00000
     16      45.8433      0.00000
     17      45.8433      0.00000
     18      51.7463      0.00000

 k-point    35 :       0.4359    0.0000    0.4359
  band No.  band energies     occupation 
      1       3.6801      2.00000
      2       8.3638      0.00000
      3      13.5925      0.00000
      4      14.0049      0.00000
      5      14.0049      0.00000
      6      17.5909      0.00000
      7      33.3093      0.00000
      8      34.9193      0.00000
      9      34.9193      0.00000
     10      40.8861      0.00000
     11      42.0255      0.00000
     12      42.2687      0.00000
     13      42.2687      0.00000
     14      44.2257      0.00000
     15      45.9910      0.00000
     16      46.2560      0.00000
     17      46.2560      0.00000
     18      51.6181      0.00000

 k-point    36 :       0.4487    0.0000    0.4487
  band No.  band energies     occupation 
      1       4.0574      2.00000
      2       7.8929      0.00000
      3      13.5388      0.00000
      4      13.9590      0.00000
      5      13.9590      0.00000
      6      17.5411      0.00000
      7      33.4927      0.00000
      8      35.0845      0.00000
      9      35.0845      0.00000
     10      41.2947      0.00000
     11      41.7352      0.00000
     12      42.2562      0.00000
     13      42.2562      0.00000
     14      44.0805      0.00000
     15      46.7945      0.00000
     16      46.7945      0.00000
     17      46.8520      0.00000
     18      51.5246      0.00000

 k-point    37 :       0.4615    0.0000    0.4615
  band No.  band energies     occupation 
      1       4.4316      2.00000
      2       7.4459      0.00000
      3      13.4970      0.00000
      4      13.9233      0.00000
      5      13.9233      0.00000
      6      17.5022      0.00000
      7      33.6453      0.00000
      8      35.2188      0.00000
      9      35.2188      0.00000
     10      41.4996      0.00000
     11      41.6878      0.00000
     12      42.2094      0.00000
     13      42.2094      0.00000
     14      43.8889      0.00000
     15      47.4184      0.00000
     16      47.4184      0.00000
     17      47.7150      0.00000
     18      51.4637      0.00000

 k-point    38 :       0.4744    0.0000    0.4744
  band No.  band energies     occupation 
      1       4.7873      2.00000
      2       7.0381      2.00000
      3      13.4672      0.00000
      4      13.8979      0.00000
      5      13.8979      0.00000
      6      17.4745      0.00000
      7      33.7604      0.00000
      8      35.3181      0.00000
      9      35.3181      0.00000
     10      41.3251      0.00000
     11      42.0527      0.00000
     12      42.1580      0.00000
     13      42.1580      0.00000
     14      43.6653      0.00000
     15      48.0932      0.00000
     16      48.0932      0.00000
     17      48.5688      0.00000
     18      51.4081      0.00000

 k-point    39 :       0.4872    0.0000    0.4872
  band No.  band energies     occupation 
      1       5.0828      2.00000
      2       6.7115      2.00000
      3      13.4493      0.00000
      4      13.8826      0.00000
      5      13.8826      0.00000
      6      17.4578      0.00000
      7      33.8322      0.00000
      8      35.3793      0.00000
      9      35.3793      0.00000
     10      41.2177      0.00000
     11      42.1205      0.00000
     12      42.1205      0.00000
     13      42.3565      0.00000
     14      43.4452      0.00000
     15      48.7707      0.00000
     16      48.7710      0.00000
     17      49.3691      0.00000
     18      50.6473      0.00000

 k-point    40 :       0.5000    0.0000    0.5000
  band No.  band energies     occupation 
      1       5.2122      2.00000
      2       6.5716      2.00000
      3      13.4433      0.00000
      4      13.8775      0.00000
      5      13.8775      0.00000
      6      17.4522      0.00000
      7      33.8566      0.00000
      8      35.3999      0.00000
      9      35.3999      0.00000
     10      41.1814      0.00000
     11      42.1069      0.00000
     12      42.1069      0.00000
     13      42.4958      0.00000
     14      43.3336      0.00000
     15      49.1938      0.00000
     16      49.1947      0.00000
     17      49.8396      0.00000
     18      50.1971      0.00000

 k-point    41 :       0.5000    0.0000    0.5000
  band No.  band energies     occupation 
      1       5.2122      2.00000
      2       6.5716      2.00000
      3      13.4433      0.00000
      4      13.8775      0.00000
      5      13.8775      0.00000
      6      17.4522      0.00000
      7      33.8566      0.00000
      8      35.3999      0.00000
      9      35.3999      0.00000
     10      41.1815      0.00000
     11      42.1069      0.00000
     12      42.1069      0.00000
     13      42.4958      0.00000
     14      43.3336      0.00000
     15      49.1938      0.00000
     16      49.1940      0.00000
     17      49.8377      0.00000
     18      50.1973      0.00000

 k-point    42 :       0.5000    0.0064    0.5064
  band No.  band energies     occupation 
      1       5.2136      2.00000
      2       6.5731      2.00000
      3      13.3546      0.00000
      4      13.8657      0.00000
      5      13.9690      0.00000
      6      17.4663      0.00000
      7      33.8485      0.00000
      8      35.3784      0.00000
      9      35.4002      0.00000
     10      41.1929      0.00000
     11      42.0832      0.00000
     12      42.1077      0.00000
     13      42.5016      0.00000
     14      43.3602      0.00000
     15      49.1747      0.00000
     16      49.1893      0.00000
     17      49.7399      0.00000
     18      50.2248      0.00000

 k-point    43 :       0.5000    0.0128    0.5128
  band No.  band energies     occupation 
      1       5.2177      2.00000
      2       6.5774      2.00000
      3      13.1800      0.00000
      4      13.8308      0.00000
      5      14.1520      0.00000
      6      17.5079      0.00000
      7      33.8242      0.00000
      8      35.3147      0.00000
      9      35.4012      0.00000
     10      41.2264      0.00000
     11      42.0181      0.00000
     12      42.1100      0.00000
     13      42.5192      0.00000
     14      43.4342      0.00000
     15      49.1196      0.00000
     16      49.1765      0.00000
     17      49.5703      0.00000
     18      50.2283      0.00000

 k-point    44 :       0.5000    0.0192    0.5192
  band No.  band energies     occupation 
      1       5.2246      2.00000
      2       6.5847      2.00000
      3      12.9855      0.00000
      4      13.7743      0.00000
      5      14.3605      0.00000
      6      17.5756      0.00000
      7      33.7838      0.00000
      8      35.2111      0.00000
      9      35.4029      0.00000
     10      41.2788      0.00000
     11      41.9246      0.00000
     12      42.1138      0.00000
     13      42.5491      0.00000
     14      43.5420      0.00000
     15      49.0345      0.00000
     16      49.1570      0.00000
     17      49.3877      0.00000
     18      50.2889      0.00000

 k-point    45 :       0.5000    0.0256    0.5256
  band No.  band energies     occupation 
      1       5.2343      2.00000
      2       6.5948      2.00000
      3      12.7864      0.00000
      4      13.6986      0.00000
      5      14.5792      0.00000
      6      17.6670      0.00000
      7      33.7276      0.00000
      8      35.0710      0.00000
      9      35.4052      0.00000
     10      41.3459      0.00000
     11      41.8148      0.00000
     12      42.1192      0.00000
     13      42.5917      0.00000
     14      43.6709      0.00000
     15      48.9273      0.00000
     16      49.1332      0.00000
     17      49.1983      0.00000
     18      50.2895      0.00000

 k-point    46 :       0.5000    0.0321    0.5321
  band No.  band energies     occupation 
      1       5.2467      2.00000
      2       6.6079      2.00000
      3      12.5867      0.00000
      4      13.6063      0.00000
      5      14.8039      0.00000
      6      17.7796      0.00000
      7      33.6556      0.00000
      8      34.8983      0.00000
      9      35.4082      0.00000
     10      41.4228      0.00000
     11      41.6978      0.00000
     12      42.1261      0.00000
     13      42.6475      0.00000
     14      43.8111      0.00000
     15      48.8051      0.00000
     16      49.0103      0.00000
     17      49.1082      0.00000
     18      50.3471      0.00000

 k-point    47 :       0.5000    0.0385    0.5385
  band No.  band energies     occupation 
      1       5.2618      2.00000
      2       6.6238      2.00000
      3      12.3882      0.00000
      4      13.5000      0.00000
      5      15.0332      0.00000
      6      17.9106      0.00000
      7      33.5683      0.00000
      8      34.6974      0.00000
      9      35.4118      0.00000
     10      41.5044      0.00000
     11      41.5793      0.00000
     12      42.1346      0.00000
     13      42.7167      0.00000
     14      43.9557      0.00000
     15      48.6724      0.00000
     16      48.8226      0.00000
     17      49.0841      0.00000
     18      50.3791      0.00000

 k-point    48 :       0.5000    0.0449    0.5449
  band No.  band energies     occupation 
      1       5.2797      2.00000
      2       6.6427      2.00000
      3      12.1915      0.00000
      4      13.3822      0.00000
      5      15.2662      0.00000
      6      18.0576      0.00000
      7      33.4660      0.00000
      8      34.4721      0.00000
      9      35.4160      0.00000
     10      41.4629      0.00000
     11      41.5864      0.00000
     12      42.1446      0.00000
     13      42.7985      0.00000
     14      44.1000      0.00000
     15      48.5338      0.00000
     16      48.6367      0.00000
     17      49.0644      0.00000
     18      50.4512      0.00000

 k-point    49 :       0.5000    0.0513    0.5513
  band No.  band energies     occupation 
      1       5.3004      2.00000
      2       6.6644      2.00000
      3      11.9970      0.00000
      4      13.2552      0.00000
      5      15.5026      0.00000
      6      18.2182      0.00000
      7      33.3491      0.00000
      8      34.2263      0.00000
      9      35.4208      0.00000
     10      41.3511      0.00000
     11      41.6660      0.00000
     12      42.1561      0.00000
     13      42.8914      0.00000
     14      44.2403      0.00000
     15      48.3918      0.00000
     16      48.4527      0.00000
     17      49.0513      0.00000
     18      50.5389      0.00000

 k-point    50 :       0.5000    0.0577    0.5577
  band No.  band energies     occupation 
      1       5.3238      2.00000
      2       6.6889      2.00000
      3      11.8049      0.00000
      4      13.1210      0.00000
      5      15.7421      0.00000
      6      18.3906      0.00000
      7      33.2183      0.00000
      8      33.9632      0.00000
      9      35.4261      0.00000
     10      41.2453      0.00000
     11      41.7413      0.00000
     12      42.1691      0.00000
     13      42.9930      0.00000
     14      44.3737      0.00000
     15      48.2483      0.00000
     16      48.2708      0.00000
     17      49.0473      0.00000
     18      50.6385      0.00000

 k-point    51 :       0.5000    0.0641    0.5641
  band No.  band energies     occupation 
      1       5.3500      2.00000
      2       6.7164      2.00000
      3      11.6153      0.00000
      4      12.9812      0.00000
      5      15.9848      0.00000
      6      18.5730      0.00000
      7      33.0740      0.00000
      8      33.6857      0.00000
      9      35.4320      0.00000
     10      41.1466      0.00000
     11      41.8119      0.00000
     12      42.1837      0.00000
     13      43.0998      0.00000
     14      44.4981      0.00000
     15      48.0909      0.00000
     16      48.1050      0.00000
     17      49.0535      0.00000
     18      50.7571      0.00000

 k-point    52 :       0.5000    0.0705    0.5705
  band No.  band energies     occupation 
      1       5.3790      2.00000
      2       6.7466      2.00000
[...]
     10      38.4101      0.00000
     11      41.8427      0.00000
     12      42.6545      0.00000
     13      44.0538      0.00000
     14      45.8069      0.00000
     15      46.5365      0.00000
     16      48.3052      0.00000
     17      51.5806      0.00000
     18      53.6311      0.00000

 k-point   101 :       0.4359    0.3141    0.7500
  band No.  band energies     occupation 
      1       6.5107      2.00000
      2       7.0120      2.00000
      3       8.0532      0.00000
      4      11.8344      0.00000
      5      19.9409      0.00000
      6      24.3243      0.00000
      7      27.5807      0.00000
      8      28.7950      0.00000
      9      34.3017      0.00000
     10      38.2614      0.00000
     11      41.7671      0.00000
     12      42.6323      0.00000
     13      44.1169      0.00000
     14      45.9307      0.00000
     15      46.6559      0.00000
     16      48.4601      0.00000
     17      51.5049      0.00000
     18      53.5638      0.00000

 k-point   102 :       0.4327    0.3173    0.7500
  band No.  band energies     occupation 
      1       6.4851      2.00000
      2       6.9888      2.00000
      3       8.0310      0.00000
      4      12.0131      0.00000
      5      19.7189      0.00000
      6      24.3013      0.00000
      7      27.7589      0.00000
      8      28.9151      0.00000
      9      34.1688      0.00000
     10      38.1147      0.00000
     11      41.6967      0.00000
     12      42.6110      0.00000
     13      44.1809      0.00000
     14      46.0510      0.00000
     15      46.7778      0.00000
     16      48.6093      0.00000
     17      51.4381      0.00000
     18      53.4867      0.00000

 k-point   103 :       0.4295    0.3205    0.7500
  band No.  band energies     occupation 
      1       6.4610      2.00000
      2       6.9667      2.00000
      3       8.0097      0.00000
      4      12.1934      0.00000
      5      19.4979      0.00000
      6      24.2794      0.00000
      7      27.9377      0.00000
      8      29.0335      0.00000
      9      34.0311      0.00000
     10      37.9706      0.00000
     11      41.6313      0.00000
     12      42.5907      0.00000
     13      44.2454      0.00000
     14      46.1667      0.00000
     15      46.9027      0.00000
     16      48.7510      0.00000
     17      51.3821      0.00000
     18      53.4046      0.00000

 k-point   104 :       0.4263    0.3237    0.7500
  band No.  band energies     occupation 
      1       6.4382      2.00000
      2       6.9458      2.00000
      3       7.9894      0.00000
      4      12.3750      0.00000
      5      19.2780      0.00000
      6      24.2587      0.00000
      7      28.1168      0.00000
      8      29.1495      0.00000
      9      33.8889      0.00000
     10      37.8298      0.00000
     11      41.5707      0.00000
     12      42.5714      0.00000
     13      44.3100      0.00000
     14      46.2769      0.00000
     15      47.0308      0.00000
     16      48.8829      0.00000
     17      51.3396      0.00000
     18      53.3136      0.00000

 k-point   105 :       0.4231    0.3269    0.7500
  band No.  band energies     occupation 
      1       6.4168      2.00000
      2       6.9260      2.00000
      3       7.9701      0.00000
      4      12.5578      0.00000
      5      19.0594      0.00000
      6      24.2393      0.00000
      7      28.2962      0.00000
      8      29.2629      0.00000
      9      33.7427      0.00000
     10      37.6927      0.00000
     11      41.5148      0.00000
     12      42.5531      0.00000
     13      44.3744      0.00000
     14      46.3809      0.00000
     15      47.1621      0.00000
     16      49.0024      0.00000
     17      51.3133      0.00000
     18      53.2098      0.00000

 k-point   106 :       0.4199    0.3301    0.7500
  band No.  band energies     occupation 
      1       6.3967      2.00000
      2       6.9074      2.00000
      3       7.9518      0.00000
      4      12.7414      0.00000
      5      18.8423      0.00000
      6      24.2210      0.00000
      7      28.4759      0.00000
      8      29.3730      0.00000
      9      33.5927      0.00000
     10      37.5599      0.00000
     11      41.4634      0.00000
     12      42.5359      0.00000
     13      44.4382      0.00000
     14      46.4783      0.00000
     15      47.2962      0.00000
     16      49.1072      0.00000
     17      51.3063      0.00000
     18      53.0996      0.00000

 k-point   107 :       0.4167    0.3333    0.7500
  band No.  band energies     occupation 
      1       6.3781      2.00000
      2       6.8900      2.00000
      3       7.9347      0.00000
      4      12.9256      0.00000
      5      18.6270      0.00000
      6      24.2039      0.00000
      7      28.6555      0.00000
      8      29.4795      0.00000
      9      33.4394      0.00000
     10      37.4321      0.00000
     11      41.4164      0.00000
     12      42.5197      0.00000
     13      44.5009      0.00000
     14      46.5688      0.00000
     15      47.4328      0.00000
     16      49.1947      0.00000
     17      51.3205      0.00000
     18      52.9777      0.00000

 k-point   108 :       0.4135    0.3365    0.7500
  band No.  band energies     occupation 
      1       6.3608      2.00000
      2       6.8738      2.00000
      3       7.9187      0.00000
      4      13.1101      0.00000
      5      18.4137      0.00000
      6      24.1881      0.00000
      7      28.8351      0.00000
      8      29.5817      0.00000
      9      33.2832      0.00000
     10      37.3099      0.00000
     11      41.3735      0.00000
     12      42.5047      0.00000
     13      44.5620      0.00000
     14      46.6523      0.00000
     15      47.5710      0.00000
     16      49.2637      0.00000
     17      51.3592      0.00000
     18      52.8515      0.00000

 k-point   109 :       0.4103    0.3397    0.7500
  band No.  band energies     occupation 
      1       6.3449      2.00000
      2       6.8589      2.00000
      3       7.9040      0.00000
      4      13.2945      0.00000
      5      18.2028      0.00000
      6      24.1735      0.00000
      7      29.0143      0.00000
      8      29.6791      0.00000
      9      33.1247      0.00000
     10      37.1938      0.00000
     11      41.3347      0.00000
     12      42.4908      0.00000
     13      44.6210      0.00000
     14      46.7288      0.00000
     15      47.7099      0.00000
     16      49.3139      0.00000
     17      51.4202      0.00000
     18      52.7213      0.00000

 k-point   110 :       0.4071    0.3429    0.7500
  band No.  band energies     occupation 
      1       6.3304      2.00000
      2       6.8452      2.00000
      3       7.8904      0.00000
      4      13.4785      0.00000
      5      17.9947      0.00000
      6      24.1601      0.00000
      7      29.1929      0.00000
      8      29.7711      0.00000
      9      32.9641      0.00000
     10      37.0846      0.00000
     11      41.2998      0.00000
     12      42.4781      0.00000
     13      44.6776      0.00000
     14      46.7984      0.00000
     15      47.8482      0.00000
     16      49.3464      0.00000
     17      51.5052      0.00000
     18      52.5897      0.00000

 k-point   111 :       0.4038    0.3462    0.7500
  band No.  band energies     occupation 
      1       6.3173      2.00000
      2       6.8328      2.00000
      3       7.8781      0.00000
      4      13.6612      0.00000
      5      17.7902      0.00000
      6      24.1480      0.00000
      7      29.3705      0.00000
      8      29.8570      0.00000
      9      32.8023      0.00000
     10      36.9830      0.00000
     11      41.2686      0.00000
     12      42.4665      0.00000
     13      44.7310      0.00000
     14      46.8611      0.00000
     15      47.9846      0.00000
     16      49.3639      0.00000
     17      51.6108      0.00000
     18      52.4545      0.00000

 k-point   112 :       0.4006    0.3494    0.7500
  band No.  band energies     occupation 
      1       6.3056      2.00000
      2       6.8217      2.00000
      3       7.8670      0.00000
      4      13.8419      0.00000
      5      17.5899      0.00000
      6      24.1372      0.00000
      7      29.5467      0.00000
      8      29.9363      0.00000
      9      32.6397      0.00000
     10      36.8896      0.00000
     11      41.2411      0.00000
     12      42.4561      0.00000
     13      44.7807      0.00000
     14      46.9171      0.00000
     15      48.1175      0.00000
     16      49.3693      0.00000
     17      51.7348      0.00000
     18      52.3217      0.00000

 k-point   113 :       0.3974    0.3526    0.7500
  band No.  band energies     occupation 
      1       6.2952      2.00000
      2       6.8119      2.00000
      3       7.8572      0.00000
      4      14.0194      0.00000
      5      17.3952      0.00000
      6      24.1276      0.00000
      7      29.7205      0.00000
      8      30.0083      0.00000
      9      32.4774      0.00000
     10      36.8051      0.00000
     11      41.2171      0.00000
     12      42.4470      0.00000
     13      44.8263      0.00000
     14      46.9663      0.00000
     15      48.2449      0.00000
     16      49.3659      0.00000
     17      51.8727      0.00000
     18      52.1933      0.00000

 k-point   114 :       0.3942    0.3558    0.7500
  band No.  band energies     occupation 
      1       6.2862      2.00000
      2       6.8033      2.00000
      3       7.8486      0.00000
      4      14.1920      0.00000
      5      17.2078      0.00000
      6      24.1193      0.00000
      7      29.8911      0.00000
      8      30.0722      0.00000
      9      32.3166      0.00000
     10      36.7301      0.00000
     11      41.1965      0.00000
     12      42.4390      0.00000
     13      44.8672      0.00000
     14      47.0090      0.00000
     15      48.3646      0.00000
     16      49.3570      0.00000
     17      52.0221      0.00000
     18      52.0717      0.00000

 k-point   115 :       0.3910    0.3590    0.7500
  band No.  band energies     occupation 
      1       6.2786      2.00000
      2       6.7961      2.00000
      3       7.8414      0.00000
      4      14.3569      0.00000
      5      17.0303      0.00000
      6      24.1122      0.00000
      7      30.0565      0.00000
      8      30.1276      0.00000
      9      32.1592      0.00000
     10      36.6654      0.00000
     11      41.1792      0.00000
     12      42.4322      0.00000
     13      44.9028      0.00000
     14      47.0450      0.00000
     15      48.4741      0.00000
     16      49.3451      0.00000
     17      51.9607      0.00000
     18      52.1793      0.00000

 k-point   116 :       0.3878    0.3622    0.7500
  band No.  band energies     occupation 
      1       6.2724      2.00000
      2       6.7902      2.00000
      3       7.8355      0.00000
      4      14.5104      0.00000
      5      16.8665      0.00000
      6      24.1065      0.00000
      7      30.1738      0.00000
      8      30.2140      0.00000
      9      32.0081      0.00000
     10      36.6116      0.00000
     11      41.1651      0.00000
     12      42.4267      0.00000
     13      44.9327      0.00000
     14      47.0745      0.00000
     15      48.5703      0.00000
     16      49.3325      0.00000
     17      51.8613      0.00000
     18      52.3436      0.00000

 k-point   117 :       0.3846    0.3654    0.7500
  band No.  band energies     occupation 
      1       6.2676      2.00000
      2       6.7856      2.00000
      3       7.8308      0.00000
      4      14.6465      0.00000
      5      16.7224      0.00000
      6      24.1020      0.00000
      7      30.2104      0.00000
      8      30.3586      0.00000
      9      31.8685      0.00000
     10      36.5691      0.00000
     11      41.1542      0.00000
     12      42.4223      0.00000
     13      44.9564      0.00000
     14      47.0975      0.00000
     15      48.6500      0.00000
     16      49.3209      0.00000
     17      51.7795      0.00000
     18      52.4993      0.00000

 k-point   118 :       0.3814    0.3686    0.7500
  band No.  band energies     occupation 
      1       6.2641      2.00000
      2       6.7823      2.00000
      3       7.8275      0.00000
      4      14.7567      0.00000
      5      16.6065      0.00000
      6      24.0988      0.00000
      7      30.2368      0.00000
      8      30.4814      0.00000
      9      31.7490      0.00000
     10      36.5384      0.00000
     11      41.1465      0.00000
     12      42.4192      0.00000
     13      44.9736      0.00000
     14      47.1139      0.00000
     15      48.7100      0.00000
     16      49.3118      0.00000
     17      51.7178      0.00000
     18      52.6485      0.00000

 k-point   119 :       0.3782    0.3718    0.7500
  band No.  band energies     occupation 
      1       6.2620      2.00000
      2       6.7803      2.00000
      3       7.8256      0.00000
      4      14.8300      0.00000
      5      16.5297      0.00000
      6      24.0969      0.00000
      7      30.2528      0.00000
      8      30.5680      0.00000
      9      31.6645      0.00000
     10      36.5198      0.00000
     11      41.1419      0.00000
     12      42.4174      0.00000
     13      44.9841      0.00000
     14      47.1237      0.00000
     15      48.7474      0.00000
     16      49.3059      0.00000
     17      51.6801      0.00000
     18      52.7716      0.00000

 k-point   120 :       0.3750    0.3750    0.7500
  band No.  band energies     occupation 
      1       6.2614      2.00000
      2       6.7796      2.00000
      3       7.8249      0.00000
      4      14.8559      0.00000
      5      16.5026      0.00000
      6      24.0962      0.00000
      7      30.2581      0.00000
      8      30.6000      0.00000
      9      31.6332      0.00000
     10      36.5136      0.00000
     11      41.1404      0.00000
     12      42.4168      0.00000
     13      44.9875      0.00000
     14      47.1270      0.00000
     15      48.7601      0.00000
     16      49.3039      0.00000
     17      51.6663      0.00000
     18      52.8061      0.00000


--------------------------------------------------------------------------------------------------------


 soft charge-density along one line, spin component           1
         0         1         2         3         4         5         6         7         8         9
 total charge-density along one line
 
 pseudopotential strength for first ion, spin component:           1
  8.466  14.425   0.000  -0.000  -0.000   0.000  -0.000  -0.000
 14.425  24.580   0.000  -0.000  -0.000   0.000   0.000  -0.000
  0.000   0.000   2.001   0.000   0.000   5.762   0.000   0.000
 -0.000  -0.000   0.000   2.001   0.000   0.000   5.762   0.000
 -0.000  -0.000   0.000   0.000   2.001   0.000   0.000   5.762
  0.000   0.000   5.762   0.000   0.000  16.505   0.000   0.000
 -0.000   0.000   0.000   5.762   0.000   0.000  16.505   0.000
 -0.000  -0.000   0.000   0.000   5.762   0.000   0.000  16.505
 total augmentation occupancy for first ion, spin component:           1
  2.000   0.000   0.000   0.000   0.000   0.000   0.000   0.000
  0.000   0.000   0.000   0.000   0.000   0.000   0.000   0.000
  0.000   0.000   0.333   0.000   0.000   0.000   0.000   0.000
  0.000   0.000   0.000   0.333   0.000   0.000   0.000   0.000
  0.000   0.000   0.000   0.000   0.333   0.000   0.000   0.000
  0.000   0.000   0.000   0.000   0.000   0.000   0.000   0.000
  0.000   0.000   0.000   0.000   0.000   0.000   0.000   0.000
  0.000   0.000   0.000   0.000   0.000   0.000   0.000   0.000


------------------------ aborting loop because EDIFF is reached ----------------------------------------


 


 total charge     
 
# of ion       s       p       d       tot
------------------------------------------
    1        0.255   0.470   0.000   0.725
 
    CHARGE:  cpu time    0.0069: real time    0.0071
    FORLOC:  cpu time    0.0001: real time    0.0001
    FORNL :  cpu time    0.0071: real time    0.0071
    FORCOR:  cpu time    0.0040: real time    0.0040
    FORHAR:  cpu time    0.0009: real time    0.0009
    OFIELD:  cpu time    0.0001: real time    0.0001

 VOLUME and BASIS-vectors are now :
 -----------------------------------------------------------------------------
  energy-cutoff  :      600.00
  volume of cell :       16.13
      direct lattice vectors                 reciprocal lattice vectors
     2.005570022  2.005570022 -0.000000000     0.249305681  0.249305681 -0.249305681
     0.000000000  2.005570022  2.005570022    -0.249305681  0.249305681  0.249305681
     2.005570022 -0.000000000  2.005570022     0.249305681 -0.249305681  0.249305681

  length of vectors
     2.836304325  2.836304325  2.836304325     0.431810106  0.431810106  0.431810106


 FORCES acting on ions
    electron-ion (+dipol)            ewald-force                    non-local-force                 convergence-correction
 -----------------------------------------------------------------------------------------------
   -.228E-07 -.799E-08 -.777E-08   0.128E-15 0.219E-15 -.131E-15   0.312E-07 0.671E-08 0.152E-07   -.107E-09 0.765E-10 -.468E-11
 -----------------------------------------------------------------------------------------------
   -.228E-07 -.799E-08 -.777E-08   0.128E-15 0.219E-15 -.131E-15   0.312E-07 0.671E-08 0.152E-07   -.107E-09 0.765E-10 -.468E-11
 
 
 POSITION                                       TOTAL-FORCE (eV/Angst)
 -----------------------------------------------------------------------------------
      0.00000      0.00000      0.00000         0.000000     -0.000000      0.000000
 -----------------------------------------------------------------------------------
    total drift:                                0.000000     -0.000000      0.000000


--------------------------------------------------------------------------------------------------------



  FREE ENERGIE OF THE ION-ELECTRON SYSTEM (eV)
  ---------------------------------------------------
  free  energy   TOTEN  =         0.02329368 eV

  energy  without entropy=        0.02362792  energy(sigma->0) =        0.02346080
 


--------------------------------------------------------------------------------------------------------


    POTLOK:  cpu time    0.0044: real time    0.0044


--------------------------------------------------------------------------------------------------------


 writing wavefunctions
     LOOP+:  cpu time    2.9839: real time    3.0567
    4ORBIT:  cpu time    0.0000: real time    0.0000
 


 total charge     
 
# of ion       s       p       d       tot
------------------------------------------
    1        0.255   0.470   0.000   0.725
 

 total amount of memory used by VASP MPI-rank0    32637. kBytes
=======================================================================

   base      :      30000. kBytes
   nonl-proj :       1108. kBytes
   fftplans  :        261. kBytes
   grid      :        367. kBytes
   one-center:          3. kBytes
   wavefun   :        898. kBytes
 
  
  
 General timing and accounting informations for this job:
 ========================================================
  
                  Total CPU time used (sec):        3.708
                            User time (sec):        3.350
                          System time (sec):        0.358
                         Elapsed time (sec):        4.495
  
                   Maximum memory used (kb):       49684.
                   Average memory used (kb):           0.
  
                          Minor page faults:         8630
                          Major page faults:           10
                 Voluntary context switches:          872
