 vasp.5.4.4.18Apr17-6-g9f103f2a35 (build Apr 24 2017 21:55:34) complex          
  
 executed on             LinuxIFC date 2019.06.20  23:24:05
 running on   24 total cores
 distrk:  each k-point on   24 cores,    1 groups
 distr:  one band on NCORES_PER_BAND=   4 cores,    6 groups


--------------------------------------------------------------------------------------------------------


 INCAR:
 POTCAR:    PAW_PBE Al 04Jan2001                  
 POTCAR:    PAW_PBE Al 04Jan2001                  
   VRHFIN =Al: s2p1                                                             
   LEXCH  = PE                                                                  
   EATOM  =    53.5387 eV,    3.9350 Ry                                         
                                                                                
   TITEL  = PAW_PBE Al 04Jan2001                                                
   LULTRA =        F    use ultrasoft PP ?                                      
   IUNSCR =        1    unscreen: 0-lin 1-nonlin 2-no                           
   RPACOR =    1.500    partial core radius                                     
   POMASS =   26.981; ZVAL   =    3.000    mass and valenz                      
   RCORE  =    1.900    outmost cutoff radius                                   
   RWIGS  =    2.650; RWIGS  =    1.402    wigner-seitz radius (au A)           
   ENMAX  =  240.300; ENMIN  =  180.225 eV                                      
   ICORE  =        2    local potential                                         
   LCOR   =        T    correct aug charges                                     
   LPAW   =        T    paw PP                                                  
   EAUG   =  291.052                                                            
   DEXC   =    0.000                                                            
   RMAX   =    1.939    core radius for proj-oper                               
   RAUG   =    1.300    factor for augmentation sphere                          
   RDEP   =    1.966    radius for radial grids                                 
   RDEPT  =    1.856    core radius for aug-charge                              
                                                                                
   Atomic configuration                                                         
    6 entries                                                                   
     n  l   j            E        occ.                                          
     1  0  0.50     -1511.1048   2.0000                                         
     2  0  0.50      -108.1629   2.0000                                         
     2  1  1.50       -69.6402   6.0000                                         
     3  0  0.50        -7.7528   2.0000                                         
     3  1  1.50        -2.7121   1.0000                                         
     3  2  2.50        -2.7212   0.0000                                         
   Description                                                                  
     l       E           TYP  RCUT    TYP  RCUT                                 
     0     -7.7528455     23  1.900                                             
     0     -3.3096929     23  1.900                                             
     1     -2.7120682     23  1.900                                             
     1     13.6058260     23  1.900                                             
     2     -2.7211652      7  1.900                                             
  local pseudopotential read in
  partial core-charges read in
  partial kinetic energy density read in
  atomic valenz-charges read in
  non local Contribution for L=           0  read in
    real space projection operators read in
  non local Contribution for L=           0  read in
    real space projection operators read in
  non local Contribution for L=           1  read in
    real space projection operators read in
  non local Contribution for L=           1  read in
    real space projection operators read in
    PAW grid and wavefunctions read in
 
   number of l-projection  operators is LMAX  =           4
   number of lm-projection operators is LMMAX =           8
 

 ----------------------------------------------------------------------------- 
|                                                                             |
|  ADVICE TO THIS USER RUNNING 'VASP/VAMP'   (HEAR YOUR MASTER'S VOICE ...):  |
|                                                                             |
|      You enforced a specific xc-type in the INCAR file,                     |
|      a different type was found on the POTCAR file                          |
|          I HOPE YOU KNOW, WHAT YOU ARE  DOING                               |
|                                                                             |
 ----------------------------------------------------------------------------- 

  PAW_PBE Al 04Jan2001                  :
 energy of atom  1       EATOM=  -53.5387
 kinetic energy error for atom=    0.0002 (will be added to EATOM!!)
 
 
 POSCAR: Al_FCC                                  
  positions in direct lattice
  velocities in cartesian coordinates
 exchange correlation table for  LEXCH =       14
   RHO(1)=    0.500       N(1)  =     2000
   RHO(2)=  100.500       N(2)  =     4000
 


--------------------------------------------------------------------------------------------------------


 ion  position               nearest neighbor table
   1  0.000  0.000  0.000-
 

IMPORTANT INFORMATION: All symmetrisations will be switched off!
NOSYMM: (Re-)initialisation of all symmetry stuff for point group C_1.

 
 
 KPOINTS: band_structure                          
  interpolating k-points between supplied coordinates
  k-points in reciprocal lattice
Space group operators:
 irot       det(A)        alpha          n_x          n_y          n_z        tau_x        tau_y        tau_z
    1     1.000000     0.000001     1.000000     0.000000     0.000000     0.000000     0.000000     0.000000


--------------------------------------------------------------------------------------------------------




 Dimension of arrays:
   k-points           NKPTS =    360   k-points in BZ     NKDIM =    360   number of bands    NBANDS=     12
   number of dos      NEDOS =    301   number of ions     NIONS =      1
   non local maximal  LDIM  =      4   non local SUM 2l+1 LMDIM =      8
   total plane-waves  NPLWV =  13824
   max r-space proj   IRMAX =      1   max aug-charges    IRDMAX=  33543
   dimension x,y,z NGX =    24 NGY =   24 NGZ =   24
   dimension x,y,z NGXF=    48 NGYF=   48 NGZF=   48
   support grid    NGXF=    48 NGYF=   48 NGZF=   48
   ions per type =               1
   NGX,Y,Z   is equivalent  to a cutoff of  14.07, 14.07, 14.07 a.u.
   NGXF,Y,Z  is equivalent  to a cutoff of  28.13, 28.13, 28.13 a.u.

 SYSTEM =  Al                                      
 POSCAR =  Al_FCC                                  

 Startparameter for this run:
   NWRITE =      2    write-flag & timer
   PREC   = accura    normal or accurate (medium, high low for compatibility)
   ISTART =      1    job   : 0-new  1-cont  2-samecut
   ICHARG =     11    charge: 1-file 2-atom 10-const
   ISPIN  =      1    spin polarized calculation?
   LNONCOLLINEAR =      T non collinear calculations
   LSORBIT =      T    spin-orbit coupling
   INIWAV =      1    electr: 0-lowe 1-rand  2-diag
   LASPH  =      F    aspherical Exc in radial PAW
   METAGGA=      F    non-selfconsistent MetaGGA calc.

 Electronic Relaxation 1
   ENCUT  =  600.0 eV  44.10 Ry    6.64 a.u.   5.66  5.66  5.66*2*pi/ulx,y,z
   ENINI  =  600.0     initial cutoff
   ENAUG  =  291.1 eV  augmentation charge cutoff
   NELM   =     60;   NELMIN=  6; NELMDL=  0     # of ELM steps 
   EDIFF  = 0.1E-06   stopping-criterion for ELM
   LREAL  =      F    real-space projection
   NLSPLINE    = F    spline interpolate recip. space projectors
   LCOMPAT=      F    compatible to vasp.4.4
   GGA_COMPAT  = T    GGA compatible to vasp.4.4-vasp.4.6
   LMAXPAW     = -100 max onsite density
   LMAXMIX     =    2 max onsite mixed and CHGCAR
   VOSKOWN=      0    Vosko Wilk Nusair interpolation
   ROPT   =    0.00000
 Ionic relaxation
   EDIFFG = 0.1E-05   stopping-criterion for IOM
   NSW    =     -1    number of steps for IOM
   NBLOCK =      1;   KBLOCK =      1    inner block; outer block 
   IBRION =     -1    ionic relax: 0-MD 1-quasi-New 2-CG
   NFREE  =      0    steps in history (QN), initial steepest desc. (CG)
   ISIF   =      0    stress and relaxation
   IWAVPR =     10    prediction:  0-non 1-charg 2-wave 3-comb
   ISYM   =     -1    0-nonsym 1-usesym 2-fastsym
   LCORR  =      T    Harris-Foulkes like correction to forces

   POTIM  = 0.5000    time-step for ionic-motion
   TEIN   =    0.0    initial temperature
   TEBEG  =    0.0;   TEEND  =   0.0 temperature during run
   SMASS  =  -3.00    Nose mass-parameter (am)
   estimated Nose-frequenzy (Omega)   =  0.10E-29 period in steps =****** mass=  -0.184E-27a.u.
   SCALEE = 1.0000    scale energy and forces
   NPACO  =    256;   APACO  = 16.0  distance and # of slots for P.C.
   PSTRESS=    0.0 pullay stress

  Mass of Ions in am
   POMASS =  26.98
  Ionic Valenz
   ZVAL   =   3.00
  Atomic Wigner-Seitz radii
   RWIGS  =  -1.00
  virtual crystal weights 
   VCA    =   1.00
   NELECT =       3.0000    total number of electrons
   NUPDOWN=      -1.0000    fix difference up-down

 DOS related values:
   EMIN   =  10.00;   EMAX   =-10.00  energy-range for DOS
   EFERMI =   0.00
   ISMEAR =     0;   SIGMA  =   0.20  broadening in eV -4-tet -1-fermi 0-gaus

 Electronic relaxation 2 (details)
   IALGO  =     38    algorithm
   LDIAG  =      T    sub-space diagonalisation (order eigenvalues)
   LSUBROT=      F    optimize rotation matrix (better conditioning)
   TURBO    =      0    0=normal 1=particle mesh
   IRESTART =      0    0=no restart 2=restart with 2 vectors
   NREBOOT  =      0    no. of reboots
   NMIN     =      0    reboot dimension
   EREF     =   0.00    reference energy to select bands
   IMIX   =      4    mixing-type and parameters
     AMIX     =   0.40;   BMIX     =  1.00
     AMIX_MAG =   1.60;   BMIX_MAG =  1.00
     AMIN     =   0.10
     WC   =   100.;   INIMIX=   1;  MIXPRE=   1;  MAXMIX= -45

 Intra band minimization:
   WEIMIN = 0.0000     energy-eigenvalue tresh-hold
   EBREAK =  0.21E-08  absolut break condition
   DEPER  =   0.30     relativ break condition  

   TIME   =   0.40     timestep for ELM

  volume/ion in A,a.u.               =      16.13       108.88
  Fermi-wavevector in a.u.,A,eV,Ry     =   0.934403  1.765765 11.879361  0.873108
  Thomas-Fermi vector in A             =   2.061204
 
 Write flags
   LWAVE        =      T    write WAVECAR
   LDOWNSAMPLE  =      F    k-point downsampling of WAVECAR
   LCHARG       =      F    write CHGCAR
   LVTOT        =      F    write LOCPOT, total local potential
   LVHAR        =      F    write LOCPOT, Hartree potential only
   LELF         =      F    write electronic localiz. function (ELF)
   LORBIT       =     11    0 simple, 1 ext, 2 COOP (PROOUT), +10 PAW based schemes


 Dipole corrections
   LMONO  =      F    monopole corrections only (constant potential shift)
   LDIPOL =      F    correct potential (dipole corrections)
   IDIPOL =      0    1-x, 2-y, 3-z, 4-all directions 
   EPSILON=  1.0000000 bulk dielectric constant

 Exchange correlation treatment:
   GGA     =    PS    GGA type
   LEXCH   =    14    internal setting for exchange type
   VOSKOWN=      0    Vosko Wilk Nusair interpolation
   LHFCALC =     F    Hartree Fock is set to
   LHFONE  =     F    Hartree Fock one center treatment
   AEXX    =    0.0000 exact exchange contribution

 Linear response parameters
   LEPSILON=     F    determine dielectric tensor
   LRPA    =     F    only Hartree local field effects (RPA)
   LNABLA  =     F    use nabla operator in PAW spheres
   LVEL    =     F    velocity operator in full k-point grid
   LINTERFAST=   F  fast interpolation
   KINTER  =     0    interpolate to denser k-point grid
   CSHIFT  =0.1000    complex shift for real part using Kramers Kronig
   OMEGAMAX=  -1.0    maximum frequency
   DEG_THRESHOLD= 0.2000000E-02 threshold for treating states as degnerate
   RTIME   =   -0.100 relaxation time in fs
  (WPLASMAI=    0.000 imaginary part of plasma frequency in eV, 0.658/RTIME)
   DFIELD  = 0.0000000 0.0000000 0.0000000 field for delta impulse in time
 
 Orbital magnetization related:
   ORBITALMAG=     F  switch on orbital magnetization
   LCHIMAG   =     F  perturbation theory with respect to B field
   DQ        =  0.001000  dq finite difference perturbation B field
   LLRAUG    =     F  two centre corrections for induced B field



--------------------------------------------------------------------------------------------------------


 Static calculation
 charge density and potential remain constant during run
 non collinear spin polarized calculation
 Variant of blocked Davidson
 Davidson routine will perform the subspace rotation
 perform sub-space diagonalisation
    after iterative eigenvector-optimisation
 no mixing
 using additional bands           10
 reciprocal scheme for non local part
 use partial core corrections
 calculate Harris-corrections to forces 
   (improved forces if not selfconsistent)
 use gradient corrections 
 WARNING: stress and forces are not correct
  (second derivative of E(xc) not defined)
 use of overlap-Matrix (Vanderbilt PP)
 Gauss-broadening in eV      SIGMA  =   0.20


--------------------------------------------------------------------------------------------------------


  energy-cutoff  :      600.00
  volume of cell :       16.13
      direct lattice vectors                 reciprocal lattice vectors
     2.005570022  2.005570022 -0.000000000     0.249305681  0.249305681 -0.249305681
     0.000000000  2.005570022  2.005570022    -0.249305681  0.249305681  0.249305681
     2.005570022 -0.000000000  2.005570022     0.249305681 -0.249305681  0.249305681

  length of vectors
     2.836304325  2.836304325  2.836304325     0.431810106  0.431810106  0.431810106


 
 old parameters found on file WAVECAR:
  energy-cutoff  :      600.00
  volume of cell :       16.13
      direct lattice vectors                 reciprocal lattice vectors
     2.005570022  2.005570022 -0.000000000     0.249305681  0.249305681 -0.249305681
     0.000000000  2.005570022  2.005570022    -0.249305681  0.249305681  0.249305681
     2.005570022 -0.000000000  2.005570022     0.249305681 -0.249305681  0.249305681

  length of vectors

 
 k-points in units of 2pi/SCALE and weight: band_structure                          
   0.00000000  0.00000000  0.00000000       0.003
   0.00209501 -0.00000000  0.00000000       0.003
   0.00419001 -0.00000000  0.00000000       0.003
   0.00628502 -0.00000000  0.00000000       0.003
   0.00838002 -0.00000000  0.00000000       0.003
   0.01047503 -0.00000000  0.00000000       0.003
   0.01257003 -0.00000000  0.00000000       0.003
   0.01466504 -0.00000000  0.00000000       0.003
   0.01676005 -0.00000000  0.00000000       0.003
   0.01885505 -0.00000000  0.00000000       0.003
   0.02095006 -0.00000000  0.00000000       0.003
   0.02304506 -0.00000000  0.00000000       0.003
   0.02514007 -0.00000000  0.00000000       0.003
   0.02723507 -0.00000000  0.00000000       0.003
   0.02933008 -0.00000000  0.00000000       0.003
   0.03142509 -0.00000000  0.00000000       0.003
   0.03352009 -0.00000000  0.00000000       0.003
   0.03561510 -0.00000000  0.00000000       0.003
   0.03771010 -0.00000000  0.00000000       0.003
   0.03980511 -0.00000000  0.00000000       0.003
   0.04190011 -0.00000000  0.00000000       0.003
   0.04399512 -0.00000000  0.00000000       0.003
   0.04609013 -0.00000000  0.00000000       0.003
   0.04818513 -0.00000000  0.00000000       0.003
   0.05028014 -0.00000000  0.00000000       0.003
   0.05237514 -0.00000000  0.00000000       0.003
   0.05447015 -0.00000000  0.00000000       0.003
   0.05656515 -0.00000000  0.00000000       0.003
   0.05866016 -0.00000000  0.00000000       0.003
   0.06075517 -0.00000000  0.00000000       0.003
   0.06285017 -0.00000000  0.00000000       0.003
   0.06494518 -0.00000000  0.00000000       0.003
   0.06704018 -0.00000000  0.00000000       0.003
   0.06913519 -0.00000000  0.00000000       0.003
   0.07123019 -0.00000000  0.00000000       0.003
   0.07332520 -0.00000000  0.00000000       0.003
   0.07542021 -0.00000000  0.00000000       0.003
   0.07751521 -0.00000000  0.00000000       0.003
   0.07961022 -0.00000000  0.00000000       0.003
   0.08170522 -0.00000000  0.00000000       0.003
   0.08380023 -0.00000000  0.00000000       0.003
   0.08589523 -0.00000000  0.00000000       0.003
   0.08799024 -0.00000000  0.00000000       0.003
   0.09008525 -0.00000000  0.00000000       0.003
   0.09218025 -0.00000000  0.00000000       0.003
   0.09427526 -0.00000000  0.00000000       0.003
   0.09637026 -0.00000000  0.00000000       0.003
   0.09846527 -0.00000000  0.00000000       0.003
   0.10056027 -0.00000000  0.00000000       0.003
   0.10265528 -0.00000000  0.00000000       0.003
   0.10475029 -0.00000000  0.00000000       0.003
   0.10684529 -0.00000000  0.00000000       0.003
   0.10894030 -0.00000000  0.00000000       0.003
   0.11103530 -0.00000000  0.00000000       0.003
   0.11313031 -0.00000000  0.00000000       0.003
   0.11522531 -0.00000000  0.00000000       0.003
   0.11732032 -0.00000000  0.00000000       0.003
   0.11941533 -0.00000000  0.00000000       0.003
   0.12151033 -0.00000000  0.00000000       0.003
   0.12360534 -0.00000000  0.00000000       0.003
   0.12570034 -0.00000000  0.00000000       0.003
   0.12779535 -0.00000000  0.00000000       0.003
   0.12989035 -0.00000000  0.00000000       0.003
   0.13198536 -0.00000000  0.00000000       0.003
   0.13408037 -0.00000000  0.00000000       0.003
   0.13617537 -0.00000000  0.00000000       0.003
   0.13827038 -0.00000000  0.00000000       0.003
   0.14036538 -0.00000000  0.00000000       0.003
   0.14246039 -0.00000000  0.00000000       0.003
   0.14455539 -0.00000000  0.00000000       0.003
   0.14665040 -0.00000000  0.00000000       0.003
   0.14874541 -0.00000000  0.00000000       0.003
   0.15084041 -0.00000000  0.00000000       0.003
   0.15293542 -0.00000000  0.00000000       0.003
   0.15503042 -0.00000000  0.00000000       0.003
   0.15712543 -0.00000000  0.00000000       0.003
   0.15922043 -0.00000000  0.00000000       0.003
   0.16131544 -0.00000000  0.00000000       0.003
   0.16341045 -0.00000000  0.00000000       0.003
   0.16550545 -0.00000000  0.00000000       0.003
   0.16760046 -0.00000000  0.00000000       0.003
   0.16969546 -0.00000000  0.00000000       0.003
   0.17179047 -0.00000000  0.00000000       0.003
   0.17388547 -0.00000000  0.00000000       0.003
   0.17598048 -0.00000000  0.00000000       0.003
   0.17807549 -0.00000000  0.00000000       0.003
   0.18017049 -0.00000000  0.00000000       0.003
   0.18226550 -0.00000000  0.00000000       0.003
   0.18436050 -0.00000000  0.00000000       0.003
   0.18645551 -0.00000000  0.00000000       0.003
   0.18855052 -0.00000000  0.00000000       0.003
   0.19064552 -0.00000000  0.00000000       0.003
   0.19274053 -0.00000000  0.00000000       0.003
   0.19483553 -0.00000000  0.00000000       0.003
   0.19693054 -0.00000000  0.00000000       0.003
   0.19902554 -0.00000000  0.00000000       0.003
   0.20112055 -0.00000000  0.00000000       0.003
   0.20321556 -0.00000000  0.00000000       0.003
   0.20531056 -0.00000000  0.00000000       0.003
   0.20740557 -0.00000000  0.00000000       0.003
   0.20950057 -0.00000000  0.00000000       0.003
   0.21159558 -0.00000000  0.00000000       0.003
   0.21369058 -0.00000000  0.00000000       0.003
   0.21578559 -0.00000000  0.00000000       0.003
   0.21788060 -0.00000000  0.00000000       0.003
   0.21997560 -0.00000000  0.00000000       0.003
   0.22207061 -0.00000000  0.00000000       0.003
   0.22416561 -0.00000000  0.00000000       0.003
   0.22626062 -0.00000000  0.00000000       0.003
   0.22835562 -0.00000000  0.00000000       0.003
   0.23045063 -0.00000000  0.00000000       0.003
   0.23254564 -0.00000000  0.00000000       0.003
   0.23464064 -0.00000000  0.00000000       0.003
   0.23673565 -0.00000000  0.00000000       0.003
   0.23883065 -0.00000000  0.00000000       0.003
   0.24092566 -0.00000000  0.00000000       0.003
   0.24302066 -0.00000000  0.00000000       0.003
   0.24511567 -0.00000000  0.00000000       0.003
   0.24721068 -0.00000000  0.00000000       0.003
   0.24930568 -0.00000000  0.00000000       0.003
   0.24930568 -0.00000000  0.00000000       0.003
   0.24930568 -0.00000000  0.00104750       0.003
   0.24930568  0.00000000  0.00209501       0.003
   0.24930568 -0.00000000  0.00314251       0.003
   0.24930568 -0.00000000  0.00419001       0.003
   0.24930568 -0.00000000  0.00523751       0.003
   0.24930568  0.00000000  0.00628502       0.003
   0.24930568  0.00000000  0.00733252       0.003
   0.24930568 -0.00000000  0.00838002       0.003
   0.24930568 -0.00000000  0.00942753       0.003
   0.24930568 -0.00000000  0.01047503       0.003
   0.24930568 -0.00000000  0.01152253       0.003
   0.24930568 -0.00000000  0.01257003       0.003
   0.24930568 -0.00000000  0.01361754       0.003
   0.24930568 -0.00000000  0.01466504       0.003
   0.24930568 -0.00000000  0.01571254       0.003
   0.24930568 -0.00000000  0.01676005       0.003
   0.24930568 -0.00000000  0.01780755       0.003
   0.24930568  0.00000000  0.01885505       0.003
   0.24930568 -0.00000000  0.01990255       0.003
   0.24930568 -0.00000000  0.02095006       0.003
   0.24930568 -0.00000000  0.02199756       0.003
   0.24930568  0.00000000  0.02304506       0.003
   0.24930568 -0.00000000  0.02409257       0.003
   0.24930568 -0.00000000  0.02514007       0.003
   0.24930568 -0.00000000  0.02618757       0.003
   0.24930568 -0.00000000  0.02723507       0.003
   0.24930568 -0.00000000  0.02828258       0.003
   0.24930568 -0.00000000  0.02933008       0.003
   0.24930568 -0.00000000  0.03037758       0.003
   0.24930568 -0.00000000  0.03142509       0.003
   0.24930568 -0.00000000  0.03247259       0.003
   0.24930568 -0.00000000  0.03352009       0.003
   0.24930568 -0.00000000  0.03456759       0.003
   0.24930568  0.00000000  0.03561510       0.003
   0.24930568 -0.00000000  0.03666260       0.003
   0.24930568 -0.00000000  0.03771010       0.003
   0.24930568 -0.00000000  0.03875761       0.003
   0.24930568  0.00000000  0.03980511       0.003
   0.24930568 -0.00000000  0.04085261       0.003
   0.24930568 -0.00000000  0.04190011       0.003
   0.24930568 -0.00000000  0.04294762       0.003
   0.24930568 -0.00000000  0.04399512       0.003
   0.24930568 -0.00000000  0.04504262       0.003
   0.24930568 -0.00000000  0.04609013       0.003
   0.24930568  0.00000000  0.04713763       0.003
   0.24930568 -0.00000000  0.04818513       0.003
   0.24930568 -0.00000000  0.04923263       0.003
   0.24930568 -0.00000000  0.05028014       0.003
   0.24930568  0.00000000  0.05132764       0.003
   0.24930568 -0.00000000  0.05237514       0.003
   0.24930568 -0.00000000  0.05342265       0.003
   0.24930568 -0.00000000  0.05447015       0.003
   0.24930568 -0.00000000  0.05551765       0.003
   0.24930568 -0.00000000  0.05656515       0.003
   0.24930568 -0.00000000  0.05761266       0.003
   0.24930568 -0.00000000  0.05866016       0.003
   0.24930568 -0.00000000  0.05970766       0.003
   0.24930568 -0.00000000  0.06075517       0.003
   0.24930568 -0.00000000  0.06180267       0.003
   0.24930568 -0.00000000  0.06285017       0.003
   0.24930568 -0.00000000  0.06389767       0.003
   0.24930568 -0.00000000  0.06494518       0.003
   0.24930568 -0.00000000  0.06599268       0.003
   0.24930568 -0.00000000  0.06704018       0.003
   0.24930568  0.00000000  0.06808769       0.003
   0.24930568  0.00000000  0.06913519       0.003
   0.24930568 -0.00000000  0.07018269       0.003
   0.24930568 -0.00000000  0.07123019       0.003
   0.24930568  0.00000000  0.07227770       0.003
   0.24930568 -0.00000000  0.07332520       0.003
   0.24930568 -0.00000000  0.07437270       0.003
   0.24930568 -0.00000000  0.07542021       0.003
   0.24930568 -0.00000000  0.07646771       0.003
   0.24930568 -0.00000000  0.07751521       0.003
   0.24930568 -0.00000000  0.07856271       0.003
   0.24930568 -0.00000000  0.07961022       0.003
   0.24930568 -0.00000000  0.08065772       0.003
   0.24930568 -0.00000000  0.08170522       0.003
   0.24930568 -0.00000000  0.08275273       0.003
   0.24930568  0.00000000  0.08380023       0.003
   0.24930568 -0.00000000  0.08484773       0.003
   0.24930568 -0.00000000  0.08589523       0.003
   0.24930568 -0.00000000  0.08694274       0.003
   0.24930568 -0.00000000  0.08799024       0.003
   0.24930568 -0.00000000  0.08903774       0.003
   0.24930568 -0.00000000  0.09008525       0.003
   0.24930568 -0.00000000  0.09113275       0.003
   0.24930568 -0.00000000  0.09218025       0.003
   0.24930568 -0.00000000  0.09322775       0.003
   0.24930568 -0.00000000  0.09427526       0.003
   0.24930568 -0.00000000  0.09532276       0.003
   0.24930568 -0.00000000  0.09637026       0.003
   0.24930568 -0.00000000  0.09741777       0.003
   0.24930568 -0.00000000  0.09846527       0.003
   0.24930568 -0.00000000  0.09951277       0.003
   0.24930568  0.00000000  0.10056027       0.003
   0.24930568  0.00000000  0.10160778       0.003
   0.24930568  0.00000000  0.10265528       0.003
   0.24930568 -0.00000000  0.10370278       0.003
   0.24930568 -0.00000000  0.10475029       0.003
   0.24930568 -0.00000000  0.10579779       0.003
   0.24930568 -0.00000000  0.10684529       0.003
   0.24930568 -0.00000000  0.10789279       0.003
   0.24930568 -0.00000000  0.10894030       0.003
   0.24930568 -0.00000000  0.10998780       0.003
   0.24930568 -0.00000000  0.11103530       0.003
   0.24930568 -0.00000000  0.11208281       0.003
   0.24930568  0.00000000  0.11313031       0.003
   0.24930568 -0.00000000  0.11417781       0.003
   0.24930568 -0.00000000  0.11522531       0.003
   0.24930568 -0.00000000  0.11627282       0.003
   0.24930568 -0.00000000  0.11732032       0.003
   0.24930568 -0.00000000  0.11836782       0.003
   0.24930568 -0.00000000  0.11941533       0.003
   0.24930568 -0.00000000  0.12046283       0.003
   0.24930568 -0.00000000  0.12151033       0.003
   0.24930568 -0.00000000  0.12255783       0.003
   0.24930568 -0.00000000  0.12360534       0.003
   0.24930568  0.00000000  0.12465284       0.003
   0.24930568  0.00000000  0.12465284       0.003
   0.24878193  0.00000000  0.12517659       0.003
   0.24825818  0.00000000  0.12570034       0.003
   0.24773443  0.00000000  0.12622409       0.003
   0.24721068  0.00000000  0.12674785       0.003
   0.24668692  0.00000000  0.12727160       0.003
   0.24616317  0.00000000  0.12779535       0.003
   0.24563942  0.00000000  0.12831910       0.003
   0.24511567  0.00000000  0.12884285       0.003
   0.24459192  0.00000000  0.12936660       0.003
   0.24406817  0.00000000  0.12989035       0.003
   0.24354442  0.00000000  0.13041411       0.003
   0.24302066  0.00000000  0.13093786       0.003
   0.24249691  0.00000000  0.13146161       0.003
   0.24197316  0.00000000  0.13198536       0.003
   0.24144941  0.00000000  0.13250911       0.003
   0.24092566  0.00000000  0.13303286       0.003
   0.24040191  0.00000000  0.13355661       0.003
   0.23987816  0.00000000  0.13408037       0.003
   0.23935440  0.00000000  0.13460412       0.003
   0.23883065  0.00000000  0.13512787       0.003
   0.23830690  0.00000000  0.13565162       0.003
   0.23778315  0.00000000  0.13617537       0.003
   0.23725940  0.00000000  0.13669912       0.003
   0.23673565  0.00000000  0.13722287       0.003
   0.23621190  0.00000000  0.13774663       0.003
   0.23568814  0.00000000  0.13827038       0.003
   0.23516439  0.00000000  0.13879413       0.003
   0.23464064  0.00000000  0.13931788       0.003
   0.23411689  0.00000000  0.13984163       0.003
   0.23359314  0.00000000  0.14036538       0.003
   0.23306939  0.00000000  0.14088913       0.003
   0.23254564  0.00000000  0.14141289       0.003
   0.23202188  0.00000000  0.14193664       0.003
   0.23149813  0.00000000  0.14246039       0.003
   0.23097438  0.00000000  0.14298414       0.003
   0.23045063  0.00000000  0.14350789       0.003
   0.22992688  0.00000000  0.14403164       0.003
   0.22940313  0.00000000  0.14455539       0.003
   0.22887938  0.00000000  0.14507915       0.003
   0.22835562  0.00000000  0.14560290       0.003
   0.22783187  0.00000000  0.14612665       0.003
   0.22730812  0.00000000  0.14665040       0.003
   0.22678437  0.00000000  0.14717415       0.003
   0.22626062  0.00000000  0.14769790       0.003
   0.22573687  0.00000000  0.14822165       0.003
   0.22521312  0.00000000  0.14874541       0.003
   0.22468936  0.00000000  0.14926916       0.003
   0.22416561  0.00000000  0.14979291       0.003
   0.22364186  0.00000000  0.15031666       0.003
   0.22311811  0.00000000  0.15084041       0.003
   0.22259436  0.00000000  0.15136416       0.003
   0.22207061  0.00000000  0.15188791       0.003
   0.22154686  0.00000000  0.15241167       0.003
   0.22102310  0.00000000  0.15293542       0.003
   0.22049935  0.00000000  0.15345917       0.003
   0.21997560  0.00000000  0.15398292       0.003
   0.21945185  0.00000000  0.15450667       0.003
   0.21892810  0.00000000  0.15503042       0.003
   0.21840435  0.00000000  0.15555417       0.003
   0.21788060  0.00000000  0.15607793       0.003
   0.21735684  0.00000000  0.15660168       0.003
   0.21683309  0.00000000  0.15712543       0.003
   0.21630934  0.00000000  0.15764918       0.003
   0.21578559  0.00000000  0.15817293       0.003
   0.21526184  0.00000000  0.15869668       0.003
   0.21473809  0.00000000  0.15922043       0.003
   0.21421434  0.00000000  0.15974419       0.003
   0.21369058  0.00000000  0.16026794       0.003
   0.21316683  0.00000000  0.16079169       0.003
   0.21264308  0.00000000  0.16131544       0.003
   0.21211933  0.00000000  0.16183919       0.003
   0.21159558  0.00000000  0.16236294       0.003
   0.21107183  0.00000000  0.16288669       0.003
   0.21054808  0.00000000  0.16341045       0.003
   0.21002432  0.00000000  0.16393420       0.003
   0.20950057  0.00000000  0.16445795       0.003
   0.20897682  0.00000000  0.16498170       0.003
   0.20845307  0.00000000  0.16550545       0.003
   0.20792932  0.00000000  0.16602920       0.003
   0.20740557  0.00000000  0.16655295       0.003
   0.20688182  0.00000000  0.16707671       0.003
   0.20635806  0.00000000  0.16760046       0.003
   0.20583431  0.00000000  0.16812421       0.003
   0.20531056  0.00000000  0.16864796       0.003
   0.20478681  0.00000000  0.16917171       0.003
   0.20426306  0.00000000  0.16969546       0.003
   0.20373931  0.00000000  0.17021921       0.003
   0.20321556  0.00000000  0.17074297       0.003
   0.20269180  0.00000000  0.17126672       0.003
   0.20216805  0.00000000  0.17179047       0.003
   0.20164430  0.00000000  0.17231422       0.003
   0.20112055  0.00000000  0.17283797       0.003
   0.20059680  0.00000000  0.17336172       0.003
   0.20007305  0.00000000  0.17388547       0.003
   0.19954930  0.00000000  0.17440923       0.003
   0.19902554  0.00000000  0.17493298       0.003
   0.19850179  0.00000000  0.17545673       0.003
   0.19797804  0.00000000  0.17598048       0.003
   0.19745429  0.00000000  0.17650423       0.003
   0.19693054  0.00000000  0.17702798       0.003
   0.19640679  0.00000000  0.17755173       0.003
   0.19588304  0.00000000  0.17807549       0.003
   0.19535928  0.00000000  0.17859924       0.003
   0.19483553  0.00000000  0.17912299       0.003
   0.19431178  0.00000000  0.17964674       0.003
   0.19378803  0.00000000  0.18017049       0.003
   0.19326428  0.00000000  0.18069424       0.003
   0.19274053  0.00000000  0.18121799       0.003
   0.19221678  0.00000000  0.18174175       0.003
   0.19169302  0.00000000  0.18226550       0.003
   0.19116927  0.00000000  0.18278925       0.003
   0.19064552  0.00000000  0.18331300       0.003
   0.19012177  0.00000000  0.18383675       0.003
   0.18959802  0.00000000  0.18436050       0.003
   0.18907427  0.00000000  0.18488426       0.003
   0.18855052  0.00000000  0.18540801       0.003
   0.18802676  0.00000000  0.18593176       0.003
   0.18750301  0.00000000  0.18645551       0.003
   0.18697926  0.00000000  0.18697926       0.003
 
 k-points in reciprocal lattice and weights: band_structure                          
   0.00000000  0.00000000  0.00000000       0.003
   0.00420168  0.00000000  0.00420168       0.003
   0.00840336  0.00000000  0.00840336       0.003
   0.01260504  0.00000000  0.01260504       0.003
   0.01680672  0.00000000  0.01680672       0.003
   0.02100840  0.00000000  0.02100840       0.003
   0.02521008  0.00000000  0.02521008       0.003
   0.02941176  0.00000000  0.02941176       0.003
   0.03361345  0.00000000  0.03361345       0.003
   0.03781513  0.00000000  0.03781513       0.003
   0.04201681  0.00000000  0.04201681       0.003
   0.04621849  0.00000000  0.04621849       0.003
   0.05042017  0.00000000  0.05042017       0.003
   0.05462185  0.00000000  0.05462185       0.003
   0.05882353  0.00000000  0.05882353       0.003
   0.06302521  0.00000000  0.06302521       0.003
   0.06722689  0.00000000  0.06722689       0.003
   0.07142857  0.00000000  0.07142857       0.003
   0.07563025  0.00000000  0.07563025       0.003
   0.07983193  0.00000000  0.07983193       0.003
   0.08403361  0.00000000  0.08403361       0.003
   0.08823529  0.00000000  0.08823529       0.003
   0.09243697  0.00000000  0.09243697       0.003
   0.09663866  0.00000000  0.09663866       0.003
   0.10084034  0.00000000  0.10084034       0.003
   0.10504202  0.00000000  0.10504202       0.003
   0.10924370  0.00000000  0.10924370       0.003
   0.11344538  0.00000000  0.11344538       0.003
   0.11764706  0.00000000  0.11764706       0.003
   0.12184874  0.00000000  0.12184874       0.003
   0.12605042  0.00000000  0.12605042       0.003
   0.13025210  0.00000000  0.13025210       0.003
   0.13445378  0.00000000  0.13445378       0.003
   0.13865546  0.00000000  0.13865546       0.003
   0.14285714  0.00000000  0.14285714       0.003
   0.14705882  0.00000000  0.14705882       0.003
   0.15126050  0.00000000  0.15126050       0.003
   0.15546218  0.00000000  0.15546218       0.003
   0.15966387  0.00000000  0.15966387       0.003
   0.16386555  0.00000000  0.16386555       0.003
   0.16806723  0.00000000  0.16806723       0.003
   0.17226891  0.00000000  0.17226891       0.003
   0.17647059  0.00000000  0.17647059       0.003
   0.18067227  0.00000000  0.18067227       0.003
   0.18487395  0.00000000  0.18487395       0.003
   0.18907563  0.00000000  0.18907563       0.003
   0.19327731  0.00000000  0.19327731       0.003
   0.19747899  0.00000000  0.19747899       0.003
   0.20168067  0.00000000  0.20168067       0.003
   0.20588235  0.00000000  0.20588235       0.003
   0.21008403  0.00000000  0.21008403       0.003
   0.21428571  0.00000000  0.21428571       0.003
   0.21848739  0.00000000  0.21848739       0.003
   0.22268908  0.00000000  0.22268908       0.003
   0.22689076  0.00000000  0.22689076       0.003
   0.23109244  0.00000000  0.23109244       0.003
   0.23529412  0.00000000  0.23529412       0.003
   0.23949580  0.00000000  0.23949580       0.003
   0.24369748  0.00000000  0.24369748       0.003
   0.24789916  0.00000000  0.24789916       0.003
   0.25210084  0.00000000  0.25210084       0.003
   0.25630252  0.00000000  0.25630252       0.003
   0.26050420  0.00000000  0.26050420       0.003
   0.26470588  0.00000000  0.26470588       0.003
   0.26890756  0.00000000  0.26890756       0.003
   0.27310924  0.00000000  0.27310924       0.003
   0.27731092  0.00000000  0.27731092       0.003
   0.28151261  0.00000000  0.28151261       0.003
   0.28571429  0.00000000  0.28571429       0.003
   0.28991597  0.00000000  0.28991597       0.003
   0.29411765  0.00000000  0.29411765       0.003
   0.29831933  0.00000000  0.29831933       0.003
   0.30252101  0.00000000  0.30252101       0.003
   0.30672269  0.00000000  0.30672269       0.003
   0.31092437  0.00000000  0.31092437       0.003
   0.31512605  0.00000000  0.31512605       0.003
   0.31932773  0.00000000  0.31932773       0.003
   0.32352941  0.00000000  0.32352941       0.003
   0.32773109  0.00000000  0.32773109       0.003
   0.33193277  0.00000000  0.33193277       0.003
   0.33613445  0.00000000  0.33613445       0.003
   0.34033613  0.00000000  0.34033613       0.003
   0.34453782  0.00000000  0.34453782       0.003
   0.34873950  0.00000000  0.34873950       0.003
   0.35294118  0.00000000  0.35294118       0.003
   0.35714286  0.00000000  0.35714286       0.003
   0.36134454  0.00000000  0.36134454       0.003
   0.36554622  0.00000000  0.36554622       0.003
   0.36974790  0.00000000  0.36974790       0.003
   0.37394958  0.00000000  0.37394958       0.003
   0.37815126  0.00000000  0.37815126       0.003
   0.38235294  0.00000000  0.38235294       0.003
   0.38655462  0.00000000  0.38655462       0.003
   0.39075630  0.00000000  0.39075630       0.003
   0.39495798  0.00000000  0.39495798       0.003
   0.39915966  0.00000000  0.39915966       0.003
   0.40336134  0.00000000  0.40336134       0.003
   0.40756303  0.00000000  0.40756303       0.003
   0.41176471  0.00000000  0.41176471       0.003
   0.41596639  0.00000000  0.41596639       0.003
   0.42016807  0.00000000  0.42016807       0.003
   0.42436975  0.00000000  0.42436975       0.003
   0.42857143  0.00000000  0.42857143       0.003
   0.43277311  0.00000000  0.43277311       0.003
   0.43697479  0.00000000  0.43697479       0.003
   0.44117647  0.00000000  0.44117647       0.003
   0.44537815  0.00000000  0.44537815       0.003
   0.44957983  0.00000000  0.44957983       0.003
   0.45378151  0.00000000  0.45378151       0.003
   0.45798319  0.00000000  0.45798319       0.003
   0.46218487  0.00000000  0.46218487       0.003
   0.46638655  0.00000000  0.46638655       0.003
   0.47058824  0.00000000  0.47058824       0.003
   0.47478992  0.00000000  0.47478992       0.003
   0.47899160  0.00000000  0.47899160       0.003
   0.48319328  0.00000000  0.48319328       0.003
   0.48739496  0.00000000  0.48739496       0.003
   0.49159664  0.00000000  0.49159664       0.003
   0.49579832  0.00000000  0.49579832       0.003
   0.50000000  0.00000000  0.50000000       0.003
   0.50000000  0.00000000  0.50000000       0.003
   0.50000000  0.00210084  0.50210084       0.003
   0.50000000  0.00420168  0.50420168       0.003
   0.50000000  0.00630252  0.50630252       0.003
   0.50000000  0.00840336  0.50840336       0.003
   0.50000000  0.01050420  0.51050420       0.003
   0.50000000  0.01260504  0.51260504       0.003
   0.50000000  0.01470588  0.51470588       0.003
   0.50000000  0.01680672  0.51680672       0.003
   0.50000000  0.01890756  0.51890756       0.003
   0.50000000  0.02100840  0.52100840       0.003
   0.50000000  0.02310924  0.52310924       0.003
   0.50000000  0.02521008  0.52521008       0.003
   0.50000000  0.02731092  0.52731092       0.003
   0.50000000  0.02941176  0.52941176       0.003
   0.50000000  0.03151261  0.53151261       0.003
   0.50000000  0.03361345  0.53361345       0.003
   0.50000000  0.03571429  0.53571429       0.003
   0.50000000  0.03781513  0.53781513       0.003
   0.50000000  0.03991597  0.53991597       0.003
   0.50000000  0.04201681  0.54201681       0.003
   0.50000000  0.04411765  0.54411765       0.003
   0.50000000  0.04621849  0.54621849       0.003
   0.50000000  0.04831933  0.54831933       0.003
   0.50000000  0.05042017  0.55042017       0.003
   0.50000000  0.05252101  0.55252101       0.003
   0.50000000  0.05462185  0.55462185       0.003
   0.50000000  0.05672269  0.55672269       0.003
   0.50000000  0.05882353  0.55882353       0.003
   0.50000000  0.06092437  0.56092437       0.003
   0.50000000  0.06302521  0.56302521       0.003
   0.50000000  0.06512605  0.56512605       0.003
   0.50000000  0.06722689  0.56722689       0.003
   0.50000000  0.06932773  0.56932773       0.003
   0.50000000  0.07142857  0.57142857       0.003
   0.50000000  0.07352941  0.57352941       0.003
   0.50000000  0.07563025  0.57563025       0.003
   0.50000000  0.07773109  0.57773109       0.003
   0.50000000  0.07983193  0.57983193       0.003
   0.50000000  0.08193277  0.58193277       0.003
   0.50000000  0.08403361  0.58403361       0.003
   0.50000000  0.08613445  0.58613445       0.003
   0.50000000  0.08823529  0.58823529       0.003
   0.50000000  0.09033613  0.59033613       0.003
   0.50000000  0.09243697  0.59243697       0.003
   0.50000000  0.09453782  0.59453782       0.003
   0.50000000  0.09663866  0.59663866       0.003
   0.50000000  0.09873950  0.59873950       0.003
   0.50000000  0.10084034  0.60084034       0.003
   0.50000000  0.10294118  0.60294118       0.003
   0.50000000  0.10504202  0.60504202       0.003
   0.50000000  0.10714286  0.60714286       0.003
   0.50000000  0.10924370  0.60924370       0.003
   0.50000000  0.11134454  0.61134454       0.003
   0.50000000  0.11344538  0.61344538       0.003
   0.50000000  0.11554622  0.61554622       0.003
   0.50000000  0.11764706  0.61764706       0.003
   0.50000000  0.11974790  0.61974790       0.003
   0.50000000  0.12184874  0.62184874       0.003
   0.50000000  0.12394958  0.62394958       0.003
   0.50000000  0.12605042  0.62605042       0.003
   0.50000000  0.12815126  0.62815126       0.003
   0.50000000  0.13025210  0.63025210       0.003
   0.50000000  0.13235294  0.63235294       0.003
   0.50000000  0.13445378  0.63445378       0.003
   0.50000000  0.13655462  0.63655462       0.003
   0.50000000  0.13865546  0.63865546       0.003
   0.50000000  0.14075630  0.64075630       0.003
   0.50000000  0.14285714  0.64285714       0.003
   0.50000000  0.14495798  0.64495798       0.003
   0.50000000  0.14705882  0.64705882       0.003
   0.50000000  0.14915966  0.64915966       0.003
   0.50000000  0.15126050  0.65126050       0.003
   0.50000000  0.15336134  0.65336134       0.003
   0.50000000  0.15546218  0.65546218       0.003
   0.50000000  0.15756303  0.65756303       0.003
   0.50000000  0.15966387  0.65966387       0.003
   0.50000000  0.16176471  0.66176471       0.003
   0.50000000  0.16386555  0.66386555       0.003
   0.50000000  0.16596639  0.66596639       0.003
   0.50000000  0.16806723  0.66806723       0.003
   0.50000000  0.17016807  0.67016807       0.003
   0.50000000  0.17226891  0.67226891       0.003
   0.50000000  0.17436975  0.67436975       0.003
   0.50000000  0.17647059  0.67647059       0.003
   0.50000000  0.17857143  0.67857143       0.003
   0.50000000  0.18067227  0.68067227       0.003
   0.50000000  0.18277311  0.68277311       0.003
   0.50000000  0.18487395  0.68487395       0.003
   0.50000000  0.18697479  0.68697479       0.003
   0.50000000  0.18907563  0.68907563       0.003
   0.50000000  0.19117647  0.69117647       0.003
   0.50000000  0.19327731  0.69327731       0.003
   0.50000000  0.19537815  0.69537815       0.003
   0.50000000  0.19747899  0.69747899       0.003
   0.50000000  0.19957983  0.69957983       0.003
   0.50000000  0.20168067  0.70168067       0.003
   0.50000000  0.20378151  0.70378151       0.003
   0.50000000  0.20588235  0.70588235       0.003
   0.50000000  0.20798319  0.70798319       0.003
   0.50000000  0.21008403  0.71008403       0.003
   0.50000000  0.21218487  0.71218487       0.003
   0.50000000  0.21428571  0.71428571       0.003
   0.50000000  0.21638655  0.71638655       0.003
   0.50000000  0.21848739  0.71848739       0.003
   0.50000000  0.22058824  0.72058824       0.003
   0.50000000  0.22268908  0.72268908       0.003
   0.50000000  0.22478992  0.72478992       0.003
   0.50000000  0.22689076  0.72689076       0.003
   0.50000000  0.22899160  0.72899160       0.003
   0.50000000  0.23109244  0.73109244       0.003
   0.50000000  0.23319328  0.73319328       0.003
   0.50000000  0.23529412  0.73529412       0.003
   0.50000000  0.23739496  0.73739496       0.003
   0.50000000  0.23949580  0.73949580       0.003
   0.50000000  0.24159664  0.74159664       0.003
   0.50000000  0.24369748  0.74369748       0.003
   0.50000000  0.24579832  0.74579832       0.003
   0.50000000  0.24789916  0.74789916       0.003
   0.50000000  0.25000000  0.75000000       0.003
   0.50000000  0.25000000  0.75000000       0.003
   0.49894958  0.25105042  0.75000000       0.003
   0.49789916  0.25210084  0.75000000       0.003
   0.49684874  0.25315126  0.75000000       0.003
   0.49579832  0.25420168  0.75000000       0.003
   0.49474790  0.25525210  0.75000000       0.003
   0.49369748  0.25630252  0.75000000       0.003
   0.49264706  0.25735294  0.75000000       0.003
   0.49159664  0.25840336  0.75000000       0.003
   0.49054622  0.25945378  0.75000000       0.003
   0.48949580  0.26050420  0.75000000       0.003
   0.48844538  0.26155462  0.75000000       0.003
   0.48739496  0.26260504  0.75000000       0.003
   0.48634454  0.26365546  0.75000000       0.003
   0.48529412  0.26470588  0.75000000       0.003
   0.48424370  0.26575630  0.75000000       0.003
   0.48319328  0.26680672  0.75000000       0.003
   0.48214286  0.26785714  0.75000000       0.003
   0.48109244  0.26890756  0.75000000       0.003
   0.48004202  0.26995798  0.75000000       0.003
   0.47899160  0.27100840  0.75000000       0.003
   0.47794118  0.27205882  0.75000000       0.003
   0.47689076  0.27310924  0.75000000       0.003
   0.47584034  0.27415966  0.75000000       0.003
   0.47478992  0.27521008  0.75000000       0.003
   0.47373950  0.27626050  0.75000000       0.003
   0.47268908  0.27731092  0.75000000       0.003
   0.47163866  0.27836134  0.75000000       0.003
   0.47058824  0.27941176  0.75000000       0.003
   0.46953782  0.28046218  0.75000000       0.003
   0.46848739  0.28151261  0.75000000       0.003
   0.46743697  0.28256303  0.75000000       0.003
   0.46638655  0.28361345  0.75000000       0.003
   0.46533613  0.28466387  0.75000000       0.003
   0.46428571  0.28571429  0.75000000       0.003
   0.46323529  0.28676471  0.75000000       0.003
   0.46218487  0.28781513  0.75000000       0.003
   0.46113445  0.28886555  0.75000000       0.003
   0.46008403  0.28991597  0.75000000       0.003
   0.45903361  0.29096639  0.75000000       0.003
   0.45798319  0.29201681  0.75000000       0.003
   0.45693277  0.29306723  0.75000000       0.003
   0.45588235  0.29411765  0.75000000       0.003
   0.45483193  0.29516807  0.75000000       0.003
   0.45378151  0.29621849  0.75000000       0.003
   0.45273109  0.29726891  0.75000000       0.003
   0.45168067  0.29831933  0.75000000       0.003
   0.45063025  0.29936975  0.75000000       0.003
   0.44957983  0.30042017  0.75000000       0.003
   0.44852941  0.30147059  0.75000000       0.003
   0.44747899  0.30252101  0.75000000       0.003
   0.44642857  0.30357143  0.75000000       0.003
   0.44537815  0.30462185  0.75000000       0.003
   0.44432773  0.30567227  0.75000000       0.003
   0.44327731  0.30672269  0.75000000       0.003
   0.44222689  0.30777311  0.75000000       0.003
   0.44117647  0.30882353  0.75000000       0.003
   0.44012605  0.30987395  0.75000000       0.003
   0.43907563  0.31092437  0.75000000       0.003
   0.43802521  0.31197479  0.75000000       0.003
   0.43697479  0.31302521  0.75000000       0.003
   0.43592437  0.31407563  0.75000000       0.003
   0.43487395  0.31512605  0.75000000       0.003
   0.43382353  0.31617647  0.75000000       0.003
   0.43277311  0.31722689  0.75000000       0.003
   0.43172269  0.31827731  0.75000000       0.003
   0.43067227  0.31932773  0.75000000       0.003
   0.42962185  0.32037815  0.75000000       0.003
   0.42857143  0.32142857  0.75000000       0.003
   0.42752101  0.32247899  0.75000000       0.003
   0.42647059  0.32352941  0.75000000       0.003
   0.42542017  0.32457983  0.75000000       0.003
   0.42436975  0.32563025  0.75000000       0.003
   0.42331933  0.32668067  0.75000000       0.003
   0.42226891  0.32773109  0.75000000       0.003
   0.42121849  0.32878151  0.75000000       0.003
   0.42016807  0.32983193  0.75000000       0.003
   0.41911765  0.33088235  0.75000000       0.003
   0.41806723  0.33193277  0.75000000       0.003
   0.41701681  0.33298319  0.75000000       0.003
   0.41596639  0.33403361  0.75000000       0.003
   0.41491597  0.33508403  0.75000000       0.003
   0.41386555  0.33613445  0.75000000       0.003
   0.41281513  0.33718487  0.75000000       0.003
   0.41176471  0.33823529  0.75000000       0.003
   0.41071429  0.33928571  0.75000000       0.003
   0.40966387  0.34033613  0.75000000       0.003
   0.40861345  0.34138655  0.75000000       0.003
   0.40756303  0.34243697  0.75000000       0.003
   0.40651261  0.34348739  0.75000000       0.003
   0.40546218  0.34453782  0.75000000       0.003
   0.40441176  0.34558824  0.75000000       0.003
   0.40336134  0.34663866  0.75000000       0.003
   0.40231092  0.34768908  0.75000000       0.003
   0.40126050  0.34873950  0.75000000       0.003
   0.40021008  0.34978992  0.75000000       0.003
   0.39915966  0.35084034  0.75000000       0.003
   0.39810924  0.35189076  0.75000000       0.003
   0.39705882  0.35294118  0.75000000       0.003
   0.39600840  0.35399160  0.75000000       0.003
   0.39495798  0.35504202  0.75000000       0.003
   0.39390756  0.35609244  0.75000000       0.003
   0.39285714  0.35714286  0.75000000       0.003
   0.39180672  0.35819328  0.75000000       0.003
   0.39075630  0.35924370  0.75000000       0.003
   0.38970588  0.36029412  0.75000000       0.003
   0.38865546  0.36134454  0.75000000       0.003
   0.38760504  0.36239496  0.75000000       0.003
   0.38655462  0.36344538  0.75000000       0.003
   0.38550420  0.36449580  0.75000000       0.003
   0.38445378  0.36554622  0.75000000       0.003
   0.38340336  0.36659664  0.75000000       0.003
   0.38235294  0.36764706  0.75000000       0.003
   0.38130252  0.36869748  0.75000000       0.003
   0.38025210  0.36974790  0.75000000       0.003
   0.37920168  0.37079832  0.75000000       0.003
   0.37815126  0.37184874  0.75000000       0.003
   0.37710084  0.37289916  0.75000000       0.003
   0.37605042  0.37394958  0.75000000       0.003
   0.37500000  0.37500000  0.75000000       0.003
 
 position of ions in fractional coordinates (direct lattice) 
   0.00000000  0.00000000  0.00000000
 
 position of ions in cartesian coordinates  (Angst):
   0.00000000  0.00000000  0.00000000
 
 Euler angles ALPHA=     0.0000000  BETA=     0.0000000

 transformation matrix from SAXIS to cartesian coordinates
 ---------------------------------------------------------
     1.0000000 m_x     0.0000000 m_y     0.0000000 m_z
     0.0000000 m_x     1.0000000 m_y     0.0000000 m_z
     0.0000000 m_x     0.0000000 m_y     1.0000000 m_z

 transformation matrix from cartesian coordinates to SAXIS
 ---------------------------------------------------------
     1.0000000 m_x     0.0000000 m_y     0.0000000 m_z
     0.0000000 m_x     1.0000000 m_y     0.0000000 m_z
     0.0000000 m_x     0.0000000 m_y     1.0000000 m_z




--------------------------------------------------------------------------------------------------------


 k-point  1 :   0.0000 0.0000 0.0000  plane waves:    1074
 k-point  2 :   0.0042 0.0000 0.0042  plane waves:    1074
 k-point  3 :   0.0084 0.0000 0.0084  plane waves:    1072
 k-point  4 :   0.0126 0.0000 0.0126  plane waves:    1072
 k-point  5 :   0.0168 0.0000 0.0168  plane waves:    1072
 k-point  6 :   0.0210 0.0000 0.0210  plane waves:    1072
 k-point  7 :   0.0252 0.0000 0.0252  plane waves:    1072
 k-point  8 :   0.0294 0.0000 0.0294  plane waves:    1072
 k-point  9 :   0.0336 0.0000 0.0336  plane waves:    1072
 k-point 10 :   0.0378 0.0000 0.0378  plane waves:    1072
 k-point 11 :   0.0420 0.0000 0.0420  plane waves:    1072
 k-point 12 :   0.0462 0.0000 0.0462  plane waves:    1072
 k-point 13 :   0.0504 0.0000 0.0504  plane waves:    1072
 k-point 14 :   0.0546 0.0000 0.0546  plane waves:    1072
 k-point 15 :   0.0588 0.0000 0.0588  plane waves:    1072
 k-point 16 :   0.0630 0.0000 0.0630  plane waves:    1072
 k-point 17 :   0.0672 0.0000 0.0672  plane waves:    1072
 k-point 18 :   0.0714 0.0000 0.0714  plane waves:    1072
 k-point 19 :   0.0756 0.0000 0.0756  plane waves:    1072
 k-point 20 :   0.0798 0.0000 0.0798  plane waves:    1072
 k-point 21 :   0.0840 0.0000 0.0840  plane waves:    1072
 k-point 22 :   0.0882 0.0000 0.0882  plane waves:    1072
 k-point 23 :   0.0924 0.0000 0.0924  plane waves:    1072
 k-point 24 :   0.0966 0.0000 0.0966  plane waves:    1072
 k-point 25 :   0.1008 0.0000 0.1008  plane waves:    1072
 k-point 26 :   0.1050 0.0000 0.1050  plane waves:    1080
 k-point 27 :   0.1092 0.0000 0.1092  plane waves:    1080
 k-point 28 :   0.1134 0.0000 0.1134  plane waves:    1080
 k-point 29 :   0.1176 0.0000 0.1176  plane waves:    1080
 k-point 30 :   0.1218 0.0000 0.1218  plane waves:    1088
 k-point 31 :   0.1261 0.0000 0.1261  plane waves:    1088
 k-point 32 :   0.1303 0.0000 0.1303  plane waves:    1088
 k-point 33 :   0.1345 0.0000 0.1345  plane waves:    1088
 k-point 34 :   0.1387 0.0000 0.1387  plane waves:    1088
 k-point 35 :   0.1429 0.0000 0.1429  plane waves:    1088
 k-point 36 :   0.1471 0.0000 0.1471  plane waves:    1088
 k-point 37 :   0.1513 0.0000 0.1513  plane waves:    1088
 k-point 38 :   0.1555 0.0000 0.1555  plane waves:    1088
 k-point 39 :   0.1597 0.0000 0.1597  plane waves:    1088
 k-point 40 :   0.1639 0.0000 0.1639  plane waves:    1096
 k-point 41 :   0.1681 0.0000 0.1681  plane waves:    1096
 k-point 42 :   0.1723 0.0000 0.1723  plane waves:    1096
 k-point 43 :   0.1765 0.0000 0.1765  plane waves:    1096
 k-point 44 :   0.1807 0.0000 0.1807  plane waves:    1080
 k-point 45 :   0.1849 0.0000 0.1849  plane waves:    1080
 k-point 46 :   0.1891 0.0000 0.1891  plane waves:    1080
 k-point 47 :   0.1933 0.0000 0.1933  plane waves:    1080
 k-point 48 :   0.1975 0.0000 0.1975  plane waves:    1080
 k-point 49 :   0.2017 0.0000 0.2017  plane waves:    1080
 k-point 50 :   0.2059 0.0000 0.2059  plane waves:    1080
 k-point 51 :   0.2101 0.0000 0.2101  plane waves:    1080
 k-point 52 :   0.2143 0.0000 0.2143  plane waves:    1072
 k-point 53 :   0.2185 0.0000 0.2185  plane waves:    1072
 k-point 54 :   0.2227 0.0000 0.2227  plane waves:    1072
 k-point 55 :   0.2269 0.0000 0.2269  plane waves:    1072
 k-point 56 :   0.2311 0.0000 0.2311  plane waves:    1072
 k-point 57 :   0.2353 0.0000 0.2353  plane waves:    1072
 k-point 58 :   0.2395 0.0000 0.2395  plane waves:    1072
 k-point 59 :   0.2437 0.0000 0.2437  plane waves:    1072
 k-point 60 :   0.2479 0.0000 0.2479  plane waves:    1056
 k-point 61 :   0.2521 0.0000 0.2521  plane waves:    1056
 k-point 62 :   0.2563 0.0000 0.2563  plane waves:    1080
 k-point 63 :   0.2605 0.0000 0.2605  plane waves:    1096
 k-point 64 :   0.2647 0.0000 0.2647  plane waves:    1096
 k-point 65 :   0.2689 0.0000 0.2689  plane waves:    1096
 k-point 66 :   0.2731 0.0000 0.2731  plane waves:    1096
 k-point 67 :   0.2773 0.0000 0.2773  plane waves:    1096
 k-point 68 :   0.2815 0.0000 0.2815  plane waves:    1096
 k-point 69 :   0.2857 0.0000 0.2857  plane waves:    1096
 k-point 70 :   0.2899 0.0000 0.2899  plane waves:    1096
 k-point 71 :   0.2941 0.0000 0.2941  plane waves:    1096
 k-point 72 :   0.2983 0.0000 0.2983  plane waves:    1096
 k-point 73 :   0.3025 0.0000 0.3025  plane waves:    1096
 k-point 74 :   0.3067 0.0000 0.3067  plane waves:    1096
 k-point 75 :   0.3109 0.0000 0.3109  plane waves:    1096
 k-point 76 :   0.3151 0.0000 0.3151  plane waves:    1096
 k-point 77 :   0.3193 0.0000 0.3193  plane waves:    1096
 k-point 78 :   0.3235 0.0000 0.3235  plane waves:    1080
 k-point 79 :   0.3277 0.0000 0.3277  plane waves:    1080
 k-point 80 :   0.3319 0.0000 0.3319  plane waves:    1080
 k-point 81 :   0.3361 0.0000 0.3361  plane waves:    1080
 k-point 82 :   0.3403 0.0000 0.3403  plane waves:    1080
 k-point 83 :   0.3445 0.0000 0.3445  plane waves:    1080
 k-point 84 :   0.3487 0.0000 0.3487  plane waves:    1088
 k-point 85 :   0.3529 0.0000 0.3529  plane waves:    1088
 k-point 86 :   0.3571 0.0000 0.3571  plane waves:    1088
 k-point 87 :   0.3613 0.0000 0.3613  plane waves:    1088
 k-point 88 :   0.3655 0.0000 0.3655  plane waves:    1088
 k-point 89 :   0.3697 0.0000 0.3697  plane waves:    1088
 k-point 90 :   0.3739 0.0000 0.3739  plane waves:    1088
 k-point 91 :   0.3782 0.0000 0.3782  plane waves:    1088
 k-point 92 :   0.3824 0.0000 0.3824  plane waves:    1088
 k-point 93 :   0.3866 0.0000 0.3866  plane waves:    1064
 k-point 94 :   0.3908 0.0000 0.3908  plane waves:    1064
 k-point 95 :   0.3950 0.0000 0.3950  plane waves:    1064
 k-point 96 :   0.3992 0.0000 0.3992  plane waves:    1064
 k-point 97 :   0.4034 0.0000 0.4034  plane waves:    1064
 k-point 98 :   0.4076 0.0000 0.4076  plane waves:    1064
 k-point 99 :   0.4118 0.0000 0.4118  plane waves:    1080
 k-point ** :   0.4160 0.0000 0.4160  plane waves:    1080
 k-point ** :   0.4202 0.0000 0.4202  plane waves:    1080
 k-point ** :   0.4244 0.0000 0.4244  plane waves:    1080
 k-point ** :   0.4286 0.0000 0.4286  plane waves:    1080
 k-point ** :   0.4328 0.0000 0.4328  plane waves:    1080
 k-point ** :   0.4370 0.0000 0.4370  plane waves:    1080
 k-point ** :   0.4412 0.0000 0.4412  plane waves:    1080
 k-point ** :   0.4454 0.0000 0.4454  plane waves:    1072
 k-point ** :   0.4496 0.0000 0.4496  plane waves:    1072
 k-point ** :   0.4538 0.0000 0.4538  plane waves:    1072
 k-point ** :   0.4580 0.0000 0.4580  plane waves:    1072
 k-point ** :   0.4622 0.0000 0.4622  plane waves:    1056
 k-point ** :   0.4664 0.0000 0.4664  plane waves:    1056
 k-point ** :   0.4706 0.0000 0.4706  plane waves:    1056
 k-point ** :   0.4748 0.0000 0.4748  plane waves:    1048
 k-point ** :   0.4790 0.0000 0.4790  plane waves:    1048
 k-point ** :   0.4832 0.0000 0.4832  plane waves:    1048
 k-point ** :   0.4874 0.0000 0.4874  plane waves:    1048
 k-point ** :   0.4916 0.0000 0.4916  plane waves:    1048
 k-point ** :   0.4958 0.0000 0.4958  plane waves:    1048
 k-point ** :   0.5000 0.0000 0.5000  plane waves:    1048
 k-point ** :   0.5000 0.0000 0.5000  plane waves:    1048
 k-point ** :   0.5000 0.0021 0.5021  plane waves:    1048
 k-point ** :   0.5000 0.0042 0.5042  plane waves:    1048
 k-point ** :   0.5000 0.0063 0.5063  plane waves:    1048
 k-point ** :   0.5000 0.0084 0.5084  plane waves:    1048
 k-point ** :   0.5000 0.0105 0.5105  plane waves:    1048
 k-point ** :   0.5000 0.0126 0.5126  plane waves:    1048
 k-point ** :   0.5000 0.0147 0.5147  plane waves:    1048
 k-point ** :   0.5000 0.0168 0.5168  plane waves:    1048
 k-point ** :   0.5000 0.0189 0.5189  plane waves:    1048
 k-point ** :   0.5000 0.0210 0.5210  plane waves:    1048
 k-point ** :   0.5000 0.0231 0.5231  plane waves:    1048
 k-point ** :   0.5000 0.0252 0.5252  plane waves:    1048
 k-point ** :   0.5000 0.0273 0.5273  plane waves:    1052
 k-point ** :   0.5000 0.0294 0.5294  plane waves:    1052
 k-point ** :   0.5000 0.0315 0.5315  plane waves:    1052
 k-point ** :   0.5000 0.0336 0.5336  plane waves:    1052
 k-point ** :   0.5000 0.0357 0.5357  plane waves:    1060
 k-point ** :   0.5000 0.0378 0.5378  plane waves:    1060
 k-point ** :   0.5000 0.0399 0.5399  plane waves:    1060
 k-point ** :   0.5000 0.0420 0.5420  plane waves:    1060
 k-point ** :   0.5000 0.0441 0.5441  plane waves:    1060
 k-point ** :   0.5000 0.0462 0.5462  plane waves:    1060
 k-point ** :   0.5000 0.0483 0.5483  plane waves:    1060
 k-point ** :   0.5000 0.0504 0.5504  plane waves:    1060
 k-point ** :   0.5000 0.0525 0.5525  plane waves:    1064
 k-point ** :   0.5000 0.0546 0.5546  plane waves:    1064
 k-point ** :   0.5000 0.0567 0.5567  plane waves:    1064
 k-point ** :   0.5000 0.0588 0.5588  plane waves:    1064
 k-point ** :   0.5000 0.0609 0.5609  plane waves:    1064
 k-point ** :   0.5000 0.0630 0.5630  plane waves:    1064
 k-point ** :   0.5000 0.0651 0.5651  plane waves:    1064
 k-point ** :   0.5000 0.0672 0.5672  plane waves:    1072
 k-point ** :   0.5000 0.0693 0.5693  plane waves:    1072
 k-point ** :   0.5000 0.0714 0.5714  plane waves:    1072
 k-point ** :   0.5000 0.0735 0.5735  plane waves:    1072
 k-point ** :   0.5000 0.0756 0.5756  plane waves:    1072
 k-point ** :   0.5000 0.0777 0.5777  plane waves:    1064
 k-point ** :   0.5000 0.0798 0.5798  plane waves:    1064
 k-point ** :   0.5000 0.0819 0.5819  plane waves:    1064
 k-point ** :   0.5000 0.0840 0.5840  plane waves:    1064
 k-point ** :   0.5000 0.0861 0.5861  plane waves:    1064
 k-point ** :   0.5000 0.0882 0.5882  plane waves:    1064
 k-point ** :   0.5000 0.0903 0.5903  plane waves:    1064
 k-point ** :   0.5000 0.0924 0.5924  plane waves:    1064
 k-point ** :   0.5000 0.0945 0.5945  plane waves:    1072
 k-point ** :   0.5000 0.0966 0.5966  plane waves:    1072
 k-point ** :   0.5000 0.0987 0.5987  plane waves:    1072
 k-point ** :   0.5000 0.1008 0.6008  plane waves:    1072
 k-point ** :   0.5000 0.1029 0.6029  plane waves:    1072
 k-point ** :   0.5000 0.1050 0.6050  plane waves:    1072
 k-point ** :   0.5000 0.1071 0.6071  plane waves:    1064
 k-point ** :   0.5000 0.1092 0.6092  plane waves:    1072
 k-point ** :   0.5000 0.1113 0.6113  plane waves:    1072
 k-point ** :   0.5000 0.1134 0.6134  plane waves:    1072
 k-point ** :   0.5000 0.1155 0.6155  plane waves:    1072
 k-point ** :   0.5000 0.1176 0.6176  plane waves:    1072
 k-point ** :   0.5000 0.1197 0.6197  plane waves:    1072
 k-point ** :   0.5000 0.1218 0.6218  plane waves:    1072
 k-point ** :   0.5000 0.1239 0.6239  plane waves:    1072
 k-point ** :   0.5000 0.1261 0.6261  plane waves:    1072
 k-point ** :   0.5000 0.1282 0.6282  plane waves:    1072
 k-point ** :   0.5000 0.1303 0.6303  plane waves:    1060
 k-point ** :   0.5000 0.1324 0.6324  plane waves:    1060
 k-point ** :   0.5000 0.1345 0.6345  plane waves:    1060
 k-point ** :   0.5000 0.1366 0.6366  plane waves:    1060
 k-point ** :   0.5000 0.1387 0.6387  plane waves:    1060
 k-point ** :   0.5000 0.1408 0.6408  plane waves:    1060
 k-point ** :   0.5000 0.1429 0.6429  plane waves:    1060
 k-point ** :   0.5000 0.1450 0.6450  plane waves:    1060
 k-point ** :   0.5000 0.1471 0.6471  plane waves:    1060
 k-point ** :   0.5000 0.1492 0.6492  plane waves:    1060
 k-point ** :   0.5000 0.1513 0.6513  plane waves:    1060
 k-point ** :   0.5000 0.1534 0.6534  plane waves:    1060
 k-point ** :   0.5000 0.1555 0.6555  plane waves:    1068
 k-point ** :   0.5000 0.1576 0.6576  plane waves:    1068
 k-point ** :   0.5000 0.1597 0.6597  plane waves:    1068
 k-point ** :   0.5000 0.1618 0.6618  plane waves:    1068
 k-point ** :   0.5000 0.1639 0.6639  plane waves:    1068
 k-point ** :   0.5000 0.1660 0.6660  plane waves:    1068
 k-point ** :   0.5000 0.1681 0.6681  plane waves:    1068
 k-point ** :   0.5000 0.1702 0.6702  plane waves:    1068
 k-point ** :   0.5000 0.1723 0.6723  plane waves:    1060
 k-point ** :   0.5000 0.1744 0.6744  plane waves:    1060
 k-point ** :   0.5000 0.1765 0.6765  plane waves:    1060
 k-point ** :   0.5000 0.1786 0.6786  plane waves:    1060
 k-point ** :   0.5000 0.1807 0.6807  plane waves:    1060
 k-point ** :   0.5000 0.1828 0.6828  plane waves:    1060
 k-point ** :   0.5000 0.1849 0.6849  plane waves:    1060
 k-point ** :   0.5000 0.1870 0.6870  plane waves:    1060
 k-point ** :   0.5000 0.1891 0.6891  plane waves:    1060
 k-point ** :   0.5000 0.1912 0.6912  plane waves:    1052
 k-point ** :   0.5000 0.1933 0.6933  plane waves:    1052
 k-point ** :   0.5000 0.1954 0.6954  plane waves:    1052
 k-point ** :   0.5000 0.1975 0.6975  plane waves:    1052
 k-point ** :   0.5000 0.1996 0.6996  plane waves:    1052
 k-point ** :   0.5000 0.2017 0.7017  plane waves:    1052
 k-point ** :   0.5000 0.2038 0.7038  plane waves:    1052
 k-point ** :   0.5000 0.2059 0.7059  plane waves:    1052
 k-point ** :   0.5000 0.2080 0.7080  plane waves:    1052
 k-point ** :   0.5000 0.2101 0.7101  plane waves:    1052
 k-point ** :   0.5000 0.2122 0.7122  plane waves:    1052
 k-point ** :   0.5000 0.2143 0.7143  plane waves:    1048
 k-point ** :   0.5000 0.2164 0.7164  plane waves:    1048
 k-point ** :   0.5000 0.2185 0.7185  plane waves:    1048
 k-point ** :   0.5000 0.2206 0.7206  plane waves:    1048
 k-point ** :   0.5000 0.2227 0.7227  plane waves:    1048
 k-point ** :   0.5000 0.2248 0.7248  plane waves:    1048
 k-point ** :   0.5000 0.2269 0.7269  plane waves:    1048
 k-point ** :   0.5000 0.2290 0.7290  plane waves:    1048
 k-point ** :   0.5000 0.2311 0.7311  plane waves:    1048
 k-point ** :   0.5000 0.2332 0.7332  plane waves:    1048
 k-point ** :   0.5000 0.2353 0.7353  plane waves:    1048
 k-point ** :   0.5000 0.2374 0.7374  plane waves:    1048
 k-point ** :   0.5000 0.2395 0.7395  plane waves:    1048
 k-point ** :   0.5000 0.2416 0.7416  plane waves:    1048
 k-point ** :   0.5000 0.2437 0.7437  plane waves:    1048
 k-point ** :   0.5000 0.2458 0.7458  plane waves:    1048
 k-point ** :   0.5000 0.2479 0.7479  plane waves:    1048
 k-point ** :   0.5000 0.2500 0.7500  plane waves:    1048
 k-point ** :   0.5000 0.2500 0.7500  plane waves:    1048
 k-point ** :   0.4989 0.2511 0.7500  plane waves:    1048
 k-point ** :   0.4979 0.2521 0.7500  plane waves:    1048
 k-point ** :   0.4968 0.2532 0.7500  plane waves:    1048
 k-point ** :   0.4958 0.2542 0.7500  plane waves:    1048
 k-point ** :   0.4947 0.2553 0.7500  plane waves:    1048
 k-point ** :   0.4937 0.2563 0.7500  plane waves:    1048
 k-point ** :   0.4926 0.2574 0.7500  plane waves:    1048
 k-point ** :   0.4916 0.2584 0.7500  plane waves:    1048
 k-point ** :   0.4905 0.2595 0.7500  plane waves:    1048
 k-point ** :   0.4895 0.2605 0.7500  plane waves:    1048
 k-point ** :   0.4884 0.2616 0.7500  plane waves:    1048
 k-point ** :   0.4874 0.2626 0.7500  plane waves:    1048
 k-point ** :   0.4863 0.2637 0.7500  plane waves:    1048
 k-point ** :   0.4853 0.2647 0.7500  plane waves:    1048
 k-point ** :   0.4842 0.2658 0.7500  plane waves:    1048
 k-point ** :   0.4832 0.2668 0.7500  plane waves:    1048
 k-point ** :   0.4821 0.2679 0.7500  plane waves:    1048
 k-point ** :   0.4811 0.2689 0.7500  plane waves:    1048
 k-point ** :   0.4800 0.2700 0.7500  plane waves:    1048
 k-point ** :   0.4790 0.2710 0.7500  plane waves:    1048
 k-point ** :   0.4779 0.2721 0.7500  plane waves:    1048
 k-point ** :   0.4769 0.2731 0.7500  plane waves:    1048
 k-point ** :   0.4758 0.2742 0.7500  plane waves:    1048
 k-point ** :   0.4748 0.2752 0.7500  plane waves:    1048
 k-point ** :   0.4737 0.2763 0.7500  plane waves:    1058
 k-point ** :   0.4727 0.2773 0.7500  plane waves:    1058
 k-point ** :   0.4716 0.2784 0.7500  plane waves:    1058
 k-point ** :   0.4706 0.2794 0.7500  plane waves:    1058
 k-point ** :   0.4695 0.2805 0.7500  plane waves:    1058
 k-point ** :   0.4685 0.2815 0.7500  plane waves:    1054
 k-point ** :   0.4674 0.2826 0.7500  plane waves:    1058
 k-point ** :   0.4664 0.2836 0.7500  plane waves:    1058
 k-point ** :   0.4653 0.2847 0.7500  plane waves:    1058
 k-point ** :   0.4643 0.2857 0.7500  plane waves:    1058
 k-point ** :   0.4632 0.2868 0.7500  plane waves:    1058
 k-point ** :   0.4622 0.2878 0.7500  plane waves:    1058
 k-point ** :   0.4611 0.2889 0.7500  plane waves:    1058
 k-point ** :   0.4601 0.2899 0.7500  plane waves:    1058
 k-point ** :   0.4590 0.2910 0.7500  plane waves:    1058
 k-point ** :   0.4580 0.2920 0.7500  plane waves:    1062
 k-point ** :   0.4569 0.2931 0.7500  plane waves:    1062
 k-point ** :   0.4559 0.2941 0.7500  plane waves:    1062
 k-point ** :   0.4548 0.2952 0.7500  plane waves:    1062
 k-point ** :   0.4538 0.2962 0.7500  plane waves:    1062
 k-point ** :   0.4527 0.2973 0.7500  plane waves:    1062
 k-point ** :   0.4517 0.2983 0.7500  plane waves:    1062
 k-point ** :   0.4506 0.2994 0.7500  plane waves:    1062
 k-point ** :   0.4496 0.3004 0.7500  plane waves:    1062
 k-point ** :   0.4485 0.3015 0.7500  plane waves:    1062
 k-point ** :   0.4475 0.3025 0.7500  plane waves:    1062
 k-point ** :   0.4464 0.3036 0.7500  plane waves:    1062
 k-point ** :   0.4454 0.3046 0.7500  plane waves:    1062
 k-point ** :   0.4443 0.3057 0.7500  plane waves:    1062
 k-point ** :   0.4433 0.3067 0.7500  plane waves:    1062
 k-point ** :   0.4422 0.3078 0.7500  plane waves:    1062
 k-point ** :   0.4412 0.3088 0.7500  plane waves:    1062
 k-point ** :   0.4401 0.3099 0.7500  plane waves:    1062
 k-point ** :   0.4391 0.3109 0.7500  plane waves:    1062
 k-point ** :   0.4380 0.3120 0.7500  plane waves:    1068
 k-point ** :   0.4370 0.3130 0.7500  plane waves:    1068
 k-point ** :   0.4359 0.3141 0.7500  plane waves:    1068
 k-point ** :   0.4349 0.3151 0.7500  plane waves:    1064
 k-point ** :   0.4338 0.3162 0.7500  plane waves:    1064
 k-point ** :   0.4328 0.3172 0.7500  plane waves:    1064
 k-point ** :   0.4317 0.3183 0.7500  plane waves:    1064
 k-point ** :   0.4307 0.3193 0.7500  plane waves:    1064
 k-point ** :   0.4296 0.3204 0.7500  plane waves:    1064
 k-point ** :   0.4286 0.3214 0.7500  plane waves:    1064
 k-point ** :   0.4275 0.3225 0.7500  plane waves:    1064
 k-point ** :   0.4265 0.3235 0.7500  plane waves:    1064
 k-point ** :   0.4254 0.3246 0.7500  plane waves:    1068
 k-point ** :   0.4244 0.3256 0.7500  plane waves:    1068
 k-point ** :   0.4233 0.3267 0.7500  plane waves:    1060
 k-point ** :   0.4223 0.3277 0.7500  plane waves:    1060
 k-point ** :   0.4212 0.3288 0.7500  plane waves:    1060
 k-point ** :   0.4202 0.3298 0.7500  plane waves:    1060
 k-point ** :   0.4191 0.3309 0.7500  plane waves:    1060
 k-point ** :   0.4181 0.3319 0.7500  plane waves:    1060
 k-point ** :   0.4170 0.3330 0.7500  plane waves:    1060
 k-point ** :   0.4160 0.3340 0.7500  plane waves:    1060
 k-point ** :   0.4149 0.3351 0.7500  plane waves:    1060
 k-point ** :   0.4139 0.3361 0.7500  plane waves:    1060
 k-point ** :   0.4128 0.3372 0.7500  plane waves:    1060
 k-point ** :   0.4118 0.3382 0.7500  plane waves:    1060
 k-point ** :   0.4107 0.3393 0.7500  plane waves:    1060
 k-point ** :   0.4097 0.3403 0.7500  plane waves:    1060
 k-point ** :   0.4086 0.3414 0.7500  plane waves:    1060
 k-point ** :   0.4076 0.3424 0.7500  plane waves:    1068
 k-point ** :   0.4065 0.3435 0.7500  plane waves:    1068
 k-point ** :   0.4055 0.3445 0.7500  plane waves:    1068
 k-point ** :   0.4044 0.3456 0.7500  plane waves:    1068
 k-point ** :   0.4034 0.3466 0.7500  plane waves:    1068
 k-point ** :   0.4023 0.3477 0.7500  plane waves:    1068
 k-point ** :   0.4013 0.3487 0.7500  plane waves:    1068
 k-point ** :   0.4002 0.3498 0.7500  plane waves:    1068
 k-point ** :   0.3992 0.3508 0.7500  plane waves:    1068
 k-point ** :   0.3981 0.3519 0.7500  plane waves:    1068
 k-point ** :   0.3971 0.3529 0.7500  plane waves:    1068
 k-point ** :   0.3960 0.3540 0.7500  plane waves:    1068
 k-point ** :   0.3950 0.3550 0.7500  plane waves:    1068
 k-point ** :   0.3939 0.3561 0.7500  plane waves:    1068
 k-point ** :   0.3929 0.3571 0.7500  plane waves:    1068
 k-point ** :   0.3918 0.3582 0.7500  plane waves:    1068
 k-point ** :   0.3908 0.3592 0.7500  plane waves:    1068
 k-point ** :   0.3897 0.3603 0.7500  plane waves:    1068
 k-point ** :   0.3887 0.3613 0.7500  plane waves:    1068
 k-point ** :   0.3876 0.3624 0.7500  plane waves:    1068
 k-point ** :   0.3866 0.3634 0.7500  plane waves:    1068
 k-point ** :   0.3855 0.3645 0.7500  plane waves:    1068
 k-point ** :   0.3845 0.3655 0.7500  plane waves:    1068
 k-point ** :   0.3834 0.3666 0.7500  plane waves:    1068
 k-point ** :   0.3824 0.3676 0.7500  plane waves:    1068
 k-point ** :   0.3813 0.3687 0.7500  plane waves:    1068
 k-point ** :   0.3803 0.3697 0.7500  plane waves:    1068
 k-point ** :   0.3792 0.3708 0.7500  plane waves:    1068
 k-point ** :   0.3782 0.3718 0.7500  plane waves:    1068
 k-point ** :   0.3771 0.3729 0.7500  plane waves:    1080
 k-point ** :   0.3761 0.3739 0.7500  plane waves:    1084
 k-point ** :   0.3750 0.3750 0.7500  plane waves:    1084

 maximum and minimum number of plane-waves per node :       288      240

 maximum number of plane-waves:      1096
 maximum index in each direction: 
   IXMAX=    5   IYMAX=    5   IZMAX=    5
   IXMIN=   -6   IYMIN=   -6   IZMIN=   -6


 parallel 3D FFT for wavefunctions:
    minimum data exchange during FFTs selected (reduces bandwidth)
 parallel 3D FFT for charge:
    minimum data exchange during FFTs selected (reduces bandwidth)


 total amount of memory used by VASP MPI-rank0    38824. kBytes
=======================================================================

   base      :      30000. kBytes
   nonl-proj :       3320. kBytes
   fftplans  :        424. kBytes
   grid      :       1474. kBytes
   one-center:         12. kBytes
   wavefun   :       3594. kBytes
 
     INWAV:  cpu time    0.4082: real time    1.1343
 initial charge density was supplied:
 number of electron       3.0000000 magnetization      -0.0000000      0.0000000      0.0000035
 keeping initial charge density in first step


--------------------------------------------------------------------------------------------------------


 Maximum index for augmentation-charges         1135 (set IRDMAX)


--------------------------------------------------------------------------------------------------------


 First call to EWALD:  gamma=   0.701
 Maximum number of real-space cells 3x 3x 3
 Maximum number of reciprocal cells 3x 3x 3

    FEWALD:  cpu time    0.0014: real time    0.0014


--------------------------------------- Iteration      1(   1)  ---------------------------------------


    POTLOK:  cpu time    0.0132: real time    0.0252
    SETDIJ:  cpu time    0.0068: real time    0.0069
     EDDAV:  cpu time    1.5211: real time    1.5335
       DOS:  cpu time    0.0036: real time    0.0036
    --------------------------------------------
      LOOP:  cpu time    1.5447: real time    1.5692

 eigenvalue-minimisations  : 13320
 total energy-change (2. order) : 0.9987899E-04  (-0.5450782E+01)
 number of electron       3.0000000 magnetization      -0.0000000      0.0000000      0.0000035
 augmentation part        3.0000000 magnetization      -0.0000000      0.0000000      0.0000035

 Free energy of the ion-electron system (eV)
  ---------------------------------------------------
  alpha Z        PSCENC =        -0.20818141
  Ewald energy   TEWEN  =       -74.06738932
  -Hartree energ DENC   =        -0.10560713
  -exchange      EXHF   =         0.00000000
  -V(xc)+E(xc)   XCENC  =       -25.18378027
  PAW double counting   =       150.96371336     -119.75497379
  entropy T*S    EENTRO =        -0.02550591
  eigenvalues    EBANDS =        15.21460622
  atomic energy  EATOM  =        53.16721811
  Solvation  Ediel_sol  =         0.00000000
  ---------------------------------------------------
  free energy    TOTEN  =         0.00009988 eV

  energy without entropy =        0.02560579  energy(sigma->0) =        0.01285283


--------------------------------------------------------------------------------------------------------




--------------------------------------- Iteration      1(   2)  ---------------------------------------


     EDDAV:  cpu time    0.9411: real time    0.9445
       DOS:  cpu time    0.0031: real time    0.0031
    --------------------------------------------
      LOOP:  cpu time    0.9442: real time    0.9476

 eigenvalue-minimisations  :  8796
 total energy-change (2. order) :-0.5308208E-02  (-0.5307093E-02)
 number of electron       3.0000000 magnetization      -0.0000000      0.0000000      0.0000035
 augmentation part        3.0000000 magnetization      -0.0000000      0.0000000      0.0000035

 Free energy of the ion-electron system (eV)
  ---------------------------------------------------
  alpha Z        PSCENC =        -0.20818141
  Ewald energy   TEWEN  =       -74.06738932
  -Hartree energ DENC   =        -0.10560713
  -exchange      EXHF   =         0.00000000
  -V(xc)+E(xc)   XCENC  =       -25.18378027
  PAW double counting   =       150.96371336     -119.75497379
  entropy T*S    EENTRO =        -0.02552694
  eigenvalues    EBANDS =        15.20931905
  atomic energy  EATOM  =        53.16721811
  Solvation  Ediel_sol  =         0.00000000
  ---------------------------------------------------
  free energy    TOTEN  =        -0.00520833 eV

  energy without entropy =        0.02031861  energy(sigma->0) =        0.00755514


--------------------------------------------------------------------------------------------------------




--------------------------------------- Iteration      1(   3)  ---------------------------------------


     EDDAV:  cpu time    1.2117: real time    1.2155
       DOS:  cpu time    0.0033: real time    0.0033
    --------------------------------------------
      LOOP:  cpu time    1.2149: real time    1.2187

 eigenvalue-minimisations  : 11028
 total energy-change (2. order) :-0.1714049E-04  (-0.1713997E-04)
 number of electron       3.0000000 magnetization      -0.0000000      0.0000000      0.0000035
 augmentation part        3.0000000 magnetization      -0.0000000      0.0000000      0.0000035

 Free energy of the ion-electron system (eV)
  ---------------------------------------------------
  alpha Z        PSCENC =        -0.20818141
  Ewald energy   TEWEN  =       -74.06738932
  -Hartree energ DENC   =        -0.10560713
  -exchange      EXHF   =         0.00000000
  -V(xc)+E(xc)   XCENC  =       -25.18378027
  PAW double counting   =       150.96371336     -119.75497379
  entropy T*S    EENTRO =        -0.02552713
  eigenvalues    EBANDS =        15.20930210
  atomic energy  EATOM  =        53.16721811
  Solvation  Ediel_sol  =         0.00000000
  ---------------------------------------------------
  free energy    TOTEN  =        -0.00522547 eV

  energy without entropy =        0.02030166  energy(sigma->0) =        0.00753809


--------------------------------------------------------------------------------------------------------




--------------------------------------- Iteration      1(   4)  ---------------------------------------


     EDDAV:  cpu time    0.9591: real time    0.9672
       DOS:  cpu time    0.0032: real time    0.0032
    --------------------------------------------
      LOOP:  cpu time    0.9623: real time    0.9704

 eigenvalue-minimisations  :  8880
 total energy-change (2. order) :-0.1352562E-06  (-0.1353457E-06)
 number of electron       3.0000000 magnetization      -0.0000000      0.0000000      0.0000035
 augmentation part        3.0000000 magnetization      -0.0000000      0.0000000      0.0000035

 Free energy of the ion-electron system (eV)
  ---------------------------------------------------
  alpha Z        PSCENC =        -0.20818141
  Ewald energy   TEWEN  =       -74.06738932
  -Hartree energ DENC   =        -0.10560713
  -exchange      EXHF   =         0.00000000
  -V(xc)+E(xc)   XCENC  =       -25.18378027
[...]
     12      24.1057      0.00000

 k-point   349 :       0.3866    0.3634    0.7500
  band No.  band energies     occupation 
      1       6.2691      1.00000
      2       6.2691      1.00000
      3       6.7880      0.99997
      4       6.7880      0.99997
      5       7.8331      0.00034
      6       7.8331      0.00034
      7      14.5660      0.00000
      8      14.5660      0.00000
      9      16.8060      0.00000
     10      16.8060      0.00000
     11      24.1041      0.00000
     12      24.1041      0.00000

 k-point   350 :       0.3855    0.3645    0.7500
  band No.  band energies     occupation 
      1       6.2675      1.00000
      2       6.2675      1.00000
      3       6.7865      0.99997
      4       6.7865      0.99997
      5       7.8316      0.00035
      6       7.8316      0.00035
      7      14.6103      0.00000
      8      14.6103      0.00000
      9      16.7592      0.00000
     10      16.7592      0.00000
     11      24.1026      0.00000
     12      24.1026      0.00000

 k-point   351 :       0.3845    0.3655    0.7500
  band No.  band energies     occupation 
      1       6.2661      1.00000
      2       6.2661      1.00000
      3       6.7852      0.99997
      4       6.7852      0.99997
      5       7.8303      0.00036
      6       7.8303      0.00036
      7      14.6521      0.00000
      8      14.6521      0.00000
      9      16.7150      0.00000
     10      16.7150      0.00000
     11      24.1013      0.00000
     12      24.1013      0.00000

 k-point   352 :       0.3834    0.3666    0.7500
  band No.  band energies     occupation 
      1       6.2649      1.00000
      2       6.2649      1.00000
      3       6.7840      0.99997
      4       6.7840      0.99997
      5       7.8290      0.00038
      6       7.8291      0.00038
      7      14.6911      0.00000
      8      14.6911      0.00000
      9      16.6739      0.00000
     10      16.6739      0.00000
     11      24.1001      0.00000
     12      24.1002      0.00000

 k-point   353 :       0.3824    0.3676    0.7500
  band No.  band energies     occupation 
      1       6.2637      1.00000
      2       6.2638      1.00000
      3       6.7829      0.99997
      4       6.7829      0.99997
      5       7.8280      0.00039
      6       7.8280      0.00039
      7      14.7269      0.00000
      8      14.7269      0.00000
      9      16.6363      0.00000
     10      16.6363      0.00000
     11      24.0991      0.00000
     12      24.0991      0.00000

 k-point   354 :       0.3813    0.3687    0.7500
  band No.  band energies     occupation 
      1       6.2628      1.00000
      2       6.2628      1.00000
      3       6.7820      0.99997
      4       6.7820      0.99997
      5       7.8271      0.00039
      6       7.8271      0.00039
      7      14.7591      0.00000
      8      14.7591      0.00000
      9      16.6024      0.00000
     10      16.6024      0.00000
     11      24.0982      0.00000
     12      24.0982      0.00000

 k-point   355 :       0.3803    0.3697    0.7500
  band No.  band energies     occupation 
      1       6.2620      1.00000
      2       6.2620      1.00000
      3       6.7812      0.99997
      4       6.7812      0.99997
      5       7.8263      0.00040
      6       7.8263      0.00040
      7      14.7873      0.00000
      8      14.7873      0.00000
      9      16.5729      0.00000
     10      16.5729      0.00000
     11      24.0975      0.00000
     12      24.0975      0.00000

 k-point   356 :       0.3792    0.3708    0.7500
  band No.  band energies     occupation 
      1       6.2613      1.00000
      2       6.2613      1.00000
      3       6.7806      0.99997
      4       6.7806      0.99997
      5       7.8256      0.00041
      6       7.8256      0.00041
      7      14.8112      0.00000
      8      14.8112      0.00000
      9      16.5479      0.00000
     10      16.5479      0.00000
     11      24.0968      0.00000
     12      24.0969      0.00000

 k-point   357 :       0.3782    0.3718    0.7500
  band No.  band energies     occupation 
      1       6.2608      1.00000
      2       6.2608      1.00000
      3       6.7801      0.99997
      4       6.7801      0.99997
      5       7.8251      0.00041
      6       7.8251      0.00041
      7      14.8302      0.00000
      8      14.8302      0.00000
      9      16.5281      0.00000
     10      16.5281      0.00000
     11      24.0964      0.00000
     12      24.0964      0.00000

 k-point   358 :       0.3771    0.3729    0.7500
  band No.  band energies     occupation 
      1       6.2604      1.00000
      2       6.2604      1.00000
      3       6.7797      0.99997
      4       6.7797      0.99997
      5       7.8248      0.00042
      6       7.8248      0.00042
      7      14.8440      0.00000
      8      14.8440      0.00000
      9      16.5136      0.00000
     10      16.5136      0.00000
     11      24.0960      0.00000
     12      24.0960      0.00000

 k-point   359 :       0.3761    0.3739    0.7500
  band No.  band energies     occupation 
      1       6.2602      1.00000
      2       6.2602      1.00000
      3       6.7795      0.99997
      4       6.7795      0.99997
      5       7.8246      0.00042
      6       7.8246      0.00042
      7      14.8524      0.00000
      8      14.8524      0.00000
      9      16.5048      0.00000
     10      16.5048      0.00000
     11      24.0958      0.00000
     12      24.0958      0.00000

 k-point   360 :       0.3750    0.3750    0.7500
  band No.  band energies     occupation 
      1       6.2601      1.00000
      2       6.2601      1.00000
      3       6.7794      0.99997
      4       6.7794      0.99997
      5       7.8245      0.00042
      6       7.8245      0.00042
      7      14.8553      0.00000
      8      14.8553      0.00000
      9      16.5019      0.00000
     10      16.5019      0.00000
     11      24.0957      0.00000
     12      24.0957      0.00000


--------------------------------------------------------------------------------------------------------


 soft charge-density along one line, spin component           1
         0         1         2         3         4         5         6         7         8         9
 total charge-density along one line
 
 soft charge-density along one line, spin component           2
         0         1         2         3         4         5         6         7         8         9
 total charge-density along one line
 
 soft charge-density along one line, spin component           3
         0         1         2         3         4         5         6         7         8         9
 total charge-density along one line
 
 soft charge-density along one line, spin component           4
         0         1         2         3         4         5         6         7         8         9
 total charge-density along one line
 
 pseudopotential strength for first ion, spin component:           1
  8.466   0.000  14.425   0.000  -0.000   0.000  -0.000   0.000   0.000   0.000   0.000   0.000  -0.000   0.000   0.000   0.000
 14.425   0.000  24.580   0.000   0.000   0.000  -0.000   0.000   0.000   0.000   0.000   0.000  -0.000   0.000   0.000   0.000
 -0.000   0.000   0.000   0.000   2.001   0.000   0.000   0.000   0.000   0.005   5.761   0.000   0.000   0.000   0.000   0.014
 -0.000   0.000  -0.000   0.000   0.000   0.000   2.001   0.000   0.000   0.000   0.000   0.000   5.761   0.000   0.000   0.000
  0.000   0.000   0.000   0.000   0.000  -0.005   0.000   0.000   2.001   0.000   0.000  -0.014   0.000   0.000   5.761   0.000
  0.000   0.000   0.000   0.000   5.761   0.000   0.000   0.000   0.000   0.014  16.505   0.000   0.000   0.000   0.000   0.037
 -0.000   0.000  -0.000   0.000   0.000   0.000   5.761   0.000   0.000   0.000   0.000   0.000  16.505   0.000   0.000   0.000
  0.000   0.000   0.000   0.000   0.000  -0.014   0.000   0.000   5.761   0.000   0.000  -0.037   0.000   0.000  16.505   0.000
 pseudopotential strength for first ion, spin component:           2
  0.000  -0.000   0.000  -0.000   0.000   0.000   0.000   0.000   0.000  -0.000   0.000   0.000   0.000   0.000   0.000  -0.000
  0.000  -0.000   0.000  -0.000   0.000   0.000   0.000   0.000   0.000  -0.000   0.000   0.000   0.000   0.000   0.000  -0.000
  0.000   0.000   0.000   0.000  -0.000   0.000  -0.000  -0.005   0.000   0.000  -0.000   0.000  -0.000  -0.014   0.000   0.000
  0.000   0.000   0.000   0.000  -0.000   0.005   0.000  -0.000  -0.005  -0.000  -0.000   0.014   0.000  -0.000  -0.014  -0.000
  0.000  -0.000   0.000  -0.000   0.000   0.000   0.005  -0.000  -0.000  -0.000   0.000   0.000   0.014  -0.000  -0.000  -0.000
  0.000   0.000   0.000   0.000  -0.000   0.000  -0.000  -0.014   0.000   0.000  -0.000   0.000  -0.000  -0.037   0.000   0.000
  0.000   0.000   0.000   0.000  -0.000   0.014   0.000  -0.000  -0.014  -0.000  -0.000   0.037   0.000  -0.000  -0.037  -0.000
  0.000  -0.000   0.000  -0.000   0.000   0.000   0.014  -0.000  -0.000  -0.000   0.000   0.000   0.037  -0.000  -0.000  -0.000
 pseudopotential strength for first ion, spin component:           3
  0.000   0.000   0.000   0.000   0.000  -0.000   0.000  -0.000   0.000   0.000   0.000  -0.000   0.000  -0.000   0.000   0.000
  0.000   0.000   0.000   0.000   0.000  -0.000   0.000  -0.000   0.000   0.000   0.000  -0.000   0.000  -0.000   0.000   0.000
  0.000  -0.000   0.000  -0.000  -0.000  -0.000  -0.000  -0.005   0.000  -0.000  -0.000  -0.000  -0.000  -0.014   0.000  -0.000
  0.000  -0.000   0.000  -0.000  -0.000   0.005   0.000   0.000   0.005   0.000  -0.000   0.014   0.000   0.000   0.014   0.000
  0.000   0.000   0.000   0.000   0.000  -0.000  -0.005   0.000  -0.000   0.000   0.000  -0.000  -0.014   0.000  -0.000   0.000
  0.000  -0.000   0.000  -0.000  -0.000  -0.000  -0.000  -0.014   0.000  -0.000  -0.000  -0.000  -0.000  -0.037   0.000  -0.000
  0.000  -0.000   0.000  -0.000  -0.000   0.014   0.000   0.000   0.014   0.000  -0.000   0.037   0.000   0.000   0.037   0.000
  0.000   0.000   0.000   0.000   0.000  -0.000  -0.014   0.000  -0.000   0.000   0.000  -0.000  -0.037   0.000  -0.000   0.000
 pseudopotential strength for first ion, spin component:           4
  8.466   0.000  14.425   0.000  -0.000   0.000  -0.000   0.000   0.000   0.000  -0.000   0.000  -0.000   0.000   0.000   0.000
 14.425   0.000  24.580   0.000   0.000   0.000  -0.000   0.000   0.000   0.000   0.000   0.000  -0.000   0.000   0.000   0.000
 -0.000   0.000   0.000   0.000   2.001   0.000   0.000   0.000   0.000  -0.005   5.761   0.000   0.000   0.000   0.000  -0.014
 -0.000   0.000  -0.000   0.000   0.000   0.000   2.001   0.000   0.000   0.000   0.000   0.000   5.761   0.000   0.000   0.000
  0.000   0.000   0.000   0.000   0.000   0.005   0.000   0.000   2.001   0.000   0.000   0.014   0.000   0.000   5.761   0.000
 -0.000   0.000   0.000   0.000   5.761   0.000   0.000   0.000   0.000  -0.014  16.505   0.000   0.000   0.000   0.000  -0.037
 -0.000   0.000  -0.000   0.000   0.000   0.000   5.761   0.000   0.000   0.000   0.000   0.000  16.505   0.000   0.000   0.000
  0.000   0.000   0.000   0.000   0.000   0.014   0.000   0.000   5.761   0.000   0.000   0.037   0.000   0.000  16.505   0.000
 total augmentation occupancy for first ion, spin component:           1
  2.000   0.000   0.000   0.000   0.000   0.000   0.000   0.000
  0.000   0.000   0.000   0.000   0.000   0.000   0.000   0.000
  0.000   0.000   0.333   0.000   0.000   0.000   0.000   0.000
  0.000   0.000   0.000   0.333   0.000   0.000   0.000   0.000
  0.000   0.000   0.000   0.000   0.333   0.000   0.000   0.000
  0.000   0.000   0.000   0.000   0.000   0.000   0.000   0.000
  0.000   0.000   0.000   0.000   0.000   0.000   0.000   0.000
  0.000   0.000   0.000   0.000   0.000   0.000   0.000   0.000
 total augmentation occupancy for first ion, spin component:           2
  0.667   0.000   0.000   0.000   0.000   0.000   0.000   0.000
  0.000   0.000   0.000   0.000   0.000   0.000   0.000   0.000
  0.000   0.000   0.111   0.000   0.000   0.000   0.000   0.000
  0.000   0.000   0.000   0.111   0.000   0.000   0.000   0.000
  0.000   0.000   0.000   0.000   0.111   0.000   0.000   0.000
  0.000   0.000   0.000   0.000   0.000   0.000   0.000   0.000
  0.000   0.000   0.000   0.000   0.000   0.000   0.000   0.000
  0.000   0.000   0.000   0.000   0.000   0.000   0.000   0.000
 total augmentation occupancy for first ion, spin component:           3
  0.667   0.000   0.000   0.000   0.000   0.000   0.000   0.000
  0.000   0.000   0.000   0.000   0.000   0.000   0.000   0.000
  0.000   0.000   0.111   0.000   0.000   0.000   0.000   0.000
  0.000   0.000   0.000   0.111   0.000   0.000   0.000   0.000
  0.000   0.000   0.000   0.000   0.111   0.000   0.000   0.000
  0.000   0.000   0.000   0.000   0.000   0.000   0.000   0.000
  0.000   0.000   0.000   0.000   0.000   0.000   0.000   0.000
  0.000   0.000   0.000   0.000   0.000   0.000   0.000   0.000
 total augmentation occupancy for first ion, spin component:           4
  0.667   0.000   0.000   0.000   0.000   0.000   0.000   0.000
  0.000   0.000   0.000   0.000   0.000   0.000   0.000   0.000
  0.000   0.000   0.111   0.000   0.000   0.000   0.000   0.000
  0.000   0.000   0.000   0.111   0.000   0.000   0.000   0.000
  0.000   0.000   0.000   0.000   0.111   0.000   0.000   0.000
  0.000   0.000   0.000   0.000   0.000   0.000   0.000   0.000
  0.000   0.000   0.000   0.000   0.000   0.000   0.000   0.000
  0.000   0.000   0.000   0.000   0.000   0.000   0.000   0.000


------------------------ aborting loop because EDIFF is reached ----------------------------------------


 


 total charge     
 
# of ion       s       p       d       tot
------------------------------------------
    1        0.256   0.470   0.000   0.726
 


 magnetization (x)
 
# of ion       s       p       d       tot
------------------------------------------
    1        0.000  -0.000   0.000  -0.000
 


 magnetization (y)
 
# of ion       s       p       d       tot
------------------------------------------
    1       -0.000   0.000   0.000  -0.000
 


 magnetization (z)
 
# of ion       s       p       d       tot
------------------------------------------
    1       -0.000   0.000   0.000   0.000
 
    CHARGE:  cpu time    0.0463: real time    0.0466
    FORLOC:  cpu time    0.0002: real time    0.0002
    FORNL :  cpu time    0.0230: real time    0.0230
    FORCOR:  cpu time    0.0154: real time    0.0154
    FORHAR:  cpu time    0.0010: real time    0.0010
    OFIELD:  cpu time    0.0001: real time    0.0001

 VOLUME and BASIS-vectors are now :
 -----------------------------------------------------------------------------
  energy-cutoff  :      600.00
  volume of cell :       16.13
      direct lattice vectors                 reciprocal lattice vectors
     2.005570022  2.005570022 -0.000000000     0.249305681  0.249305681 -0.249305681
     0.000000000  2.005570022  2.005570022    -0.249305681  0.249305681  0.249305681
     2.005570022 -0.000000000  2.005570022     0.249305681 -0.249305681  0.249305681

  length of vectors
     2.836304325  2.836304325  2.836304325     0.431810106  0.431810106  0.431810106


 FORCES acting on ions
    electron-ion (+dipol)            ewald-force                    non-local-force                 convergence-correction
 -----------------------------------------------------------------------------------------------
   0.274E-07 -.725E-07 0.976E-07   0.128E-15 0.219E-15 -.131E-15   -.347E-07 0.787E-07 -.105E-06   0.491E-10 0.203E-08 0.521E-10
 -----------------------------------------------------------------------------------------------
   0.274E-07 -.725E-07 0.976E-07   0.128E-15 0.219E-15 -.131E-15   -.347E-07 0.787E-07 -.105E-06   0.491E-10 0.203E-08 0.521E-10
 
 
 POSITION                                       TOTAL-FORCE (eV/Angst)
 -----------------------------------------------------------------------------------
      0.00000      0.00000      0.00000        -0.000000      0.000000     -0.000000
 -----------------------------------------------------------------------------------
    total drift:                               -0.000000      0.000000     -0.000000


--------------------------------------------------------------------------------------------------------



  FREE ENERGIE OF THE ION-ELECTRON SYSTEM (eV)
  ---------------------------------------------------
  free  energy   TOTEN  =        -0.00522561 eV

  energy  without entropy=        0.02030152  energy(sigma->0) =        0.00753796
 


--------------------------------------------------------------------------------------------------------


    POTLOK:  cpu time    0.0165: real time    0.0166


--------------------------------------------------------------------------------------------------------


 writing wavefunctions
     LOOP+:  cpu time    6.9557: real time    8.3495
    4ORBIT:  cpu time    0.0000: real time    0.0000

 Spin-Orbit-Coupling matrix elements

 Ion:    1  E_soc:     -0.0002564
 l=   1
     0.0000000    -0.0000219    -0.0000687
    -0.0000219     0.0000000    -0.0000376
    -0.0000687    -0.0000376     0.0000000
 l=   2
     0.0000000     0.0000000     0.0000000     0.0000000     0.0000000
     0.0000000     0.0000000     0.0000000     0.0000000     0.0000000
     0.0000000     0.0000000     0.0000000     0.0000000     0.0000000
     0.0000000     0.0000000     0.0000000     0.0000000     0.0000000
     0.0000000     0.0000000     0.0000000     0.0000000     0.0000000
 l=   3
     0.0000000     0.0000000     0.0000000     0.0000000     0.0000000     0.0000000     0.0000000
     0.0000000     0.0000000     0.0000000     0.0000000     0.0000000     0.0000000     0.0000000
     0.0000000     0.0000000     0.0000000     0.0000000     0.0000000     0.0000000     0.0000000
     0.0000000     0.0000000     0.0000000     0.0000000     0.0000000     0.0000000     0.0000000
     0.0000000     0.0000000     0.0000000     0.0000000     0.0000000     0.0000000     0.0000000
     0.0000000     0.0000000     0.0000000     0.0000000     0.0000000     0.0000000     0.0000000
     0.0000000     0.0000000     0.0000000     0.0000000     0.0000000     0.0000000     0.0000000
 


 total charge     
 
# of ion       s       p       d       tot
------------------------------------------
    1        0.256   0.470   0.000   0.726
 


 magnetization (x)
 
# of ion       s       p       d       tot
------------------------------------------
    1        0.000  -0.000   0.000  -0.000
 


 magnetization (y)
 
# of ion       s       p       d       tot
------------------------------------------
    1       -0.000   0.000   0.000  -0.000
 


 magnetization (z)
 
# of ion       s       p       d       tot
------------------------------------------
    1       -0.000   0.000   0.000   0.000
 

 total amount of memory used by VASP MPI-rank0    38824. kBytes
=======================================================================

   base      :      30000. kBytes
   nonl-proj :       3320. kBytes
   fftplans  :        424. kBytes
   grid      :       1474. kBytes
   one-center:         12. kBytes
   wavefun   :       3594. kBytes
 
  
  
 General timing and accounting informations for this job:
 ========================================================
  
                  Total CPU time used (sec):        8.692
                            User time (sec):        7.894
                          System time (sec):        0.798
                         Elapsed time (sec):       11.761
  
                   Maximum memory used (kb):       62164.
                   Average memory used (kb):           0.
  
                          Minor page faults:        13757
                          Major page faults:           53
                 Voluntary context switches:         4964
