PROCAR lm decomposed
# of k-points:  120         # of bands:   18         # of ions:    1

 k-point     1 :    0.00000000 0.00000000 0.00000000     weight = 0.00833333

band     1 # energy   -3.10024477 # occ.  2.00000000
 
ion      s     py     pz     px    dxy    dyz    dz2    dxz  x2-y2    tot
    1  0.274  0.000  0.000  0.000  0.000  0.000  0.000  0.000  0.000  0.274
 
band     2 # energy   20.90475822 # occ.  0.00000000
 
ion      s     py     pz     px    dxy    dyz    dz2    dxz  x2-y2    tot
    1  0.000  0.000  0.000  0.000  0.000  0.000  0.000  0.000  0.000  0.000
 
band     3 # energy   20.90475823 # occ.  0.00000000
 
ion      s     py     pz     px    dxy    dyz    dz2    dxz  x2-y2    tot
    1  0.000  0.000  0.000  0.000  0.000  0.000  0.000  0.000  0.000  0.000
 
band     4 # energy   20.90475823 # occ.  0.00000000
 
ion      s     py     pz     px    dxy    dyz    dz2    dxz  x2-y2    tot
    1  0.000  0.000  0.000  0.000  0.000  0.000  0.000  0.000  0.000  0.000
 
band     5 # energy   22.56718775 # occ.  0.00000000
 
ion      s     py     pz     px    dxy    dyz    dz2    dxz  x2-y2    tot
    1  0.000  0.155  0.107  0.259  0.000  0.000  0.000  0.000  0.000  0.520
 
band     6 # energy   22.56718775 # occ.  0.00000000
 
ion      s     py     pz     px    dxy    dyz    dz2    dxz  x2-y2    tot
    1  0.000  0.192  0.240  0.088  0.000  0.000  0.000  0.000  0.000  0.520
 
band     7 # energy   22.56718782 # occ.  0.00000000
 
ion      s     py     pz     px    dxy    dyz    dz2    dxz  x2-y2    tot
    1  0.000  0.173  0.174  0.173  0.000  0.000  0.000  0.000  0.000  0.520
 
band     8 # energy   24.83419452 # occ.  0.00000000
 
ion      s     py     pz     px    dxy    dyz    dz2    dxz  x2-y2    tot
    1  0.000  0.000  0.000  0.000  0.000  0.000  0.000  0.000  0.000  0.000
 
band     9 # energy   27.78985609 # occ.  0.00000000
 
ion      s     py     pz     px    dxy    dyz    dz2    dxz  x2-y2    tot
    1  0.000  0.000  0.000  0.000  0.000  0.000  0.000  0.000  0.000  0.000
 
band    10 # energy   27.78985609 # occ.  0.00000000
 
ion      s     py     pz     px    dxy    dyz    dz2    dxz  x2-y2    tot
    1  0.000  0.000  0.000  0.000  0.000  0.000  0.000  0.000  0.000  0.000
 
band    11 # energy   30.78220002 # occ.  0.00000000
 
ion      s     py     pz     px    dxy    dyz    dz2    dxz  x2-y2    tot
    1  0.141  0.000  0.000  0.000  0.000  0.000  0.000  0.000  0.000  0.141
 
band    12 # energy   33.15430757 # occ.  0.00000000
 
ion      s     py     pz     px    dxy    dyz    dz2    dxz  x2-y2    tot
    1  0.000  0.063  0.051  0.022  0.000  0.000  0.000  0.000  0.000  0.136
 
band    13 # energy   33.15430757 # occ.  0.00000000
 
ion      s     py     pz     px    dxy    dyz    dz2    dxz  x2-y2    tot
    1  0.000  0.028  0.039  0.069  0.000  0.000  0.000  0.000  0.000  0.136
 
band    14 # energy   33.15430758 # occ.  0.00000000
 
ion      s     py     pz     px    dxy    dyz    dz2    dxz  x2-y2    tot
    1  0.000  0.045  0.045  0.045  0.000  0.000  0.000  0.000  0.000  0.136
 
band    15 # energy   42.17259912 # occ.  0.00000000
 
ion      s     py     pz     px    dxy    dyz    dz2    dxz  x2-y2    tot
    1  0.500  0.000  0.000  0.000  0.000  0.000  0.000  0.000  0.000  0.500
 
band    16 # energy   56.65937472 # occ.  0.00000000
 
ion      s     py     pz     px    dxy    dyz    dz2    dxz  x2-y2    tot
    1  0.000  0.320  0.852  3.308  0.000  0.000  0.000  0.000  0.000  4.480
 
band    17 # energy   56.65988555 # occ.  0.00000000
 
ion      s     py     pz     px    dxy    dyz    dz2    dxz  x2-y2    tot
    1  0.000  0.760  2.556  1.168  0.000  0.000  0.000  0.000  0.000  4.485
 
band    18 # energy   56.86785807 # occ.  0.00000000
 
ion      s     py     pz     px    dxy    dyz    dz2    dxz  x2-y2    tot
    1  8.325  0.784  0.248  0.001  0.000  0.000  0.000  0.000  0.000  9.359
 

 k-point     2 :    0.01282051 0.00000000 0.01282051     weight = 0.00833333

band     1 # energy   -3.09420564 # occ.  2.00000000
 
ion      s     py     pz     px    dxy    dyz    dz2    dxz  x2-y2    tot
    1  0.274  0.000  0.000  0.000  0.000  0.000  0.000  0.000  0.000  0.274
 
band     2 # energy   20.81923223 # occ.  0.00000000
 
ion      s     py     pz     px    dxy    dyz    dz2    dxz  x2-y2    tot
    1  0.000  0.020  0.008  0.000  0.000  0.000  0.000  0.000  0.000  0.027
 
band     3 # energy   20.81923223 # occ.  0.00000000
 
ion      s     py     pz     px    dxy    dyz    dz2    dxz  x2-y2    tot
    1  0.000  0.008  0.020  0.000  0.000  0.000  0.000  0.000  0.000  0.027
 
band     4 # energy   20.85409196 # occ.  0.00000000
 
ion      s     py     pz     px    dxy    dyz    dz2    dxz  x2-y2    tot
    1  0.000  0.000  0.000  0.000  0.000  0.000  0.000  0.000  0.000  0.000
 
band     5 # energy   22.55199851 # occ.  0.00000000
 
ion      s     py     pz     px    dxy    dyz    dz2    dxz  x2-y2    tot
    1  0.001  0.000  0.000  0.518  0.000  0.000  0.000  0.000  0.000  0.520
 
band     6 # energy   22.66168911 # occ.  0.00000000
 
ion      s     py     pz     px    dxy    dyz    dz2    dxz  x2-y2    tot
    1  0.000  0.241  0.252  0.000  0.000  0.000  0.000  0.000  0.000  0.493
 
band     7 # energy   22.66168916 # occ.  0.00000000
 
ion      s     py     pz     px    dxy    dyz    dz2    dxz  x2-y2    tot
    1  0.000  0.252  0.241  0.000  0.000  0.000  0.000  0.000  0.000  0.493
 
band     8 # energy   24.89694152 # occ.  0.00000000
 
ion      s     py     pz     px    dxy    dyz    dz2    dxz  x2-y2    tot
    1  0.000  0.000  0.000  0.000  0.000  0.000  0.000  0.000  0.000  0.000
 
band     9 # energy   27.70618366 # occ.  0.00000000
 
ion      s     py     pz     px    dxy    dyz    dz2    dxz  x2-y2    tot
    1  0.000  0.000  0.000  0.003  0.000  0.000  0.000  0.000  0.000  0.003
 
band    10 # energy   27.79545826 # occ.  0.00000000
 
ion      s     py     pz     px    dxy    dyz    dz2    dxz  x2-y2    tot
    1  0.000  0.000  0.000  0.000  0.000  0.000  0.000  0.000  0.000  0.000
 
band    11 # energy   30.75910629 # occ.  0.00000000
 
ion      s     py     pz     px    dxy    dyz    dz2    dxz  x2-y2    tot
    1  0.134  0.000  0.000  0.007  0.000  0.000  0.000  0.000  0.000  0.142
 
band    12 # energy   33.16103847 # occ.  0.00000000
 
ion      s     py     pz     px    dxy    dyz    dz2    dxz  x2-y2    tot
    1  0.000  0.068  0.068  0.000  0.000  0.000  0.000  0.000  0.000  0.136
 
band    13 # energy   33.16103848 # occ.  0.00000000
 
ion      s     py     pz     px    dxy    dyz    dz2    dxz  x2-y2    tot
    1  0.000  0.068  0.068  0.000  0.000  0.000  0.000  0.000  0.000  0.136
 
band    14 # energy   33.27488212 # occ.  0.00000000
 
ion      s     py     pz     px    dxy    dyz    dz2    dxz  x2-y2    tot
    1  0.007  0.000  0.000  0.127  0.000  0.000  0.000  0.000  0.000  0.133
 
band    15 # energy   42.19634353 # occ.  0.00000000
 
ion      s     py     pz     px    dxy    dyz    dz2    dxz  x2-y2    tot
    1  0.498  0.000  0.000  0.001  0.000  0.000  0.000  0.000  0.000  0.500
 
band    16 # energy   56.64166821 # occ.  0.00000000
 
ion      s     py     pz     px    dxy    dyz    dz2    dxz  x2-y2    tot
    1  0.607  1.799  0.048  2.363  0.000  0.000  0.000  0.000  0.000  4.817
 
band    17 # energy   56.65077793 # occ.  0.00000000
 
ion      s     py     pz     px    dxy    dyz    dz2    dxz  x2-y2    tot
    1  0.000  0.113  4.347  0.000  0.000  0.000  0.000  0.000  0.000  4.461
 
band    18 # energy   56.81237449 # occ.  0.00000000
 
ion      s     py     pz     px    dxy    dyz    dz2    dxz  x2-y2    tot
    1  6.077  1.571  0.039  0.378  0.000  0.000  0.000  0.000  0.000  8.066
 

 k-point     3 :    0.02564103 0.00000000 0.02564103     weight = 0.00833333

band     1 # energy   -3.07606889 # occ.  2.00000000
 
ion      s     py     pz     px    dxy    dyz    dz2    dxz  x2-y2    tot
    1  0.274  0.000  0.000  0.001  0.000  0.000  0.000  0.000  0.000  0.274
 
band     2 # energy   20.60434635 # occ.  0.00000000
 
ion      s     py     pz     px    dxy    dyz    dz2    dxz  x2-y2    tot
    1  0.000  0.042  0.036  0.000  0.000  0.000  0.000  0.000  0.000  0.077
 
band     3 # energy   20.60434636 # occ.  0.00000000
 
ion      s     py     pz     px    dxy    dyz    dz2    dxz  x2-y2    tot
    1  0.000  0.036  0.042  0.000  0.000  0.000  0.000  0.000  0.000  0.077
 
band     4 # energy   20.71091761 # occ.  0.00000000
 
ion      s     py     pz     px    dxy    dyz    dz2    dxz  x2-y2    tot
    1  0.000  0.000  0.000  0.000  0.000  0.000  0.000  0.000  0.000  0.000
 
band     5 # energy   22.50692677 # occ.  0.00000000
 
ion      s     py     pz     px    dxy    dyz    dz2    dxz  x2-y2    tot
    1  0.006  0.000  0.000  0.512  0.000  0.000  0.000  0.000  0.000  0.517
 
band     6 # energy   22.90345996 # occ.  0.00000000
 
ion      s     py     pz     px    dxy    dyz    dz2    dxz  x2-y2    tot
    1  0.000  0.221  0.222  0.000  0.000  0.000  0.000  0.000  0.000  0.443
 
band     7 # energy   22.90346000 # occ.  0.00000000
 
ion      s     py     pz     px    dxy    dyz    dz2    dxz  x2-y2    tot
    1  0.000  0.222  0.221  0.000  0.000  0.000  0.000  0.000  0.000  0.443
 
band     8 # energy   25.07635750 # occ.  0.00000000
 
ion      s     py     pz     px    dxy    dyz    dz2    dxz  x2-y2    tot
    1  0.000  0.000  0.000  0.000  0.000  0.000  0.000  0.000  0.000  0.000
 
band     9 # energy   27.46293460 # occ.  0.00000000
 
ion      s     py     pz     px    dxy    dyz    dz2    dxz  x2-y2    tot
    1  0.000  0.000  0.000  0.011  0.000  0.000  0.000  0.000  0.000  0.011
 
band    10 # energy   27.81226140 # occ.  0.00000000
 
ion      s     py     pz     px    dxy    dyz    dz2    dxz  x2-y2    tot
    1  0.000  0.000  0.000  0.000  0.000  0.000  0.000  0.000  0.000  0.000
 
band    11 # energy   30.71976666 # occ.  0.00000000
 
ion      s     py     pz     px    dxy    dyz    dz2    dxz  x2-y2    tot
    1  0.120  0.000  0.000  0.023  0.000  0.000  0.000  0.000  0.000  0.143
 
band    12 # energy   33.18126637 # occ.  0.00000000
 
ion      s     py     pz     px    dxy    dyz    dz2    dxz  x2-y2    tot
    1  0.000  0.068  0.068  0.000  0.000  0.000  0.000  0.000  0.000  0.135
 
band    13 # energy   33.18126638 # occ.  0.00000000
 
ion      s     py     pz     px    dxy    dyz    dz2    dxz  x2-y2    tot
    1  0.000  0.068  0.068  0.000  0.000  0.000  0.000  0.000  0.000  0.135
 
band    14 # energy   33.59796929 # occ.  0.00000000
 
ion      s     py     pz     px    dxy    dyz    dz2    dxz  x2-y2    tot
    1  0.023  0.000  0.000  0.104  0.000  0.000  0.000  0.000  0.000  0.127
 
band    15 # energy   42.26794780 # occ.  0.00000000
 
ion      s     py     pz     px    dxy    dyz    dz2    dxz  x2-y2    tot
    1  0.494  0.000  0.000  0.006  0.000  0.000  0.000  0.000  0.000  0.499
 
band    16 # energy   56.58598471 # occ.  0.00000000
 
ion      s     py     pz     px    dxy    dyz    dz2    dxz  x2-y2    tot
    1  2.438  0.090  0.299  3.021  0.000  0.000  0.000  0.000  0.000  5.848
 
band    17 # energy   56.62781193 # occ.  0.00000000
 
ion      s     py     pz     px    dxy    dyz    dz2    dxz  x2-y2    tot
    1  0.005  3.335  1.075  0.002  0.000  0.000  0.000  0.000  0.000  4.417
 
band    18 # energy   56.76670704 # occ.  0.00000000
 
ion      s     py     pz     px    dxy    dyz    dz2    dxz  x2-y2    tot
    1  4.543  0.585  1.915  0.059  0.000  0.000  0.000  0.000  0.000  7.102
 

 k-point     4 :    0.03846154 0.00000000 0.03846154     weight = 0.00833333

band     1 # energy   -3.04583818 # occ.  2.00000000
 
ion      s     py     pz     px    dxy    dyz    dz2    dxz  x2-y2    tot
    1  0.273  0.000  0.000  0.001  0.000  0.000  0.000  0.000  0.000  0.274
 
band     2 # energy   20.32430105 # occ.  0.00000000
 
ion      s     py     pz     px    dxy    dyz    dz2    dxz  x2-y2    tot
    1  0.000  0.060  0.061  0.000  0.000  0.000  0.000  0.000  0.000  0.121
 
band     3 # energy   20.32430106 # occ.  0.00000000
 
ion      s     py     pz     px    dxy    dyz    dz2    dxz  x2-y2    tot
    1  0.000  0.061  0.060  0.000  0.000  0.000  0.000  0.000  0.000  0.121
 
band     4 # energy   20.49599937 # occ.  0.00000000
 
ion      s     py     pz     px    dxy    dyz    dz2    dxz  x2-y2    tot
    1  0.000  0.000  0.000  0.000  0.000  0.000  0.000  0.000  0.000  0.000
 
band     5 # energy   22.43343564 # occ.  0.00000000
 
ion      s     py     pz     px    dxy    dyz    dz2    dxz  x2-y2    tot
    1  0.013  0.000  0.000  0.501  0.000  0.000  0.000  0.000  0.000  0.514
 
band     6 # energy   23.22817149 # occ.  0.00000000
 
ion      s     py     pz     px    dxy    dyz    dz2    dxz  x2-y2    tot
    1  0.000  0.201  0.199  0.000  0.000  0.000  0.000  0.000  0.000  0.401
 
band     7 # energy   23.22817152 # occ.  0.00000000
 
ion      s     py     pz     px    dxy    dyz    dz2    dxz  x2-y2    tot
    1  0.000  0.199  0.201  0.000  0.000  0.000  0.000  0.000  0.000  0.401
 
band     8 # energy   25.35167642 # occ.  0.00000000
 
ion      s     py     pz     px    dxy    dyz    dz2    dxz  x2-y2    tot
    1  0.000  0.000  0.000  0.000  0.000  0.000  0.000  0.000  0.000  0.000
 
band     9 # energy   27.08312803 # occ.  0.00000000
 
ion      s     py     pz     px    dxy    dyz    dz2    dxz  x2-y2    tot
    1  0.000  0.000  0.000  0.024  0.000  0.000  0.000  0.000  0.000  0.024
 
band    10 # energy   27.84025541 # occ.  0.00000000
 
ion      s     py     pz     px    dxy    dyz    dz2    dxz  x2-y2    tot
    1  0.000  0.000  0.000  0.000  0.000  0.000  0.000  0.000  0.000  0.000
 
band    11 # energy   30.71135826 # occ.  0.00000000
 
ion      s     py     pz     px    dxy    dyz    dz2    dxz  x2-y2    tot
    1  0.105  0.000  0.000  0.037  0.000  0.000  0.000  0.000  0.000  0.142
 
band    12 # energy   33.21509828 # occ.  0.00000000
 
ion      s     py     pz     px    dxy    dyz    dz2    dxz  x2-y2    tot
    1  0.000  0.067  0.067  0.000  0.000  0.000  0.000  0.000  0.000  0.134
 
band    13 # energy   33.21509829 # occ.  0.00000000
 
ion      s     py     pz     px    dxy    dyz    dz2    dxz  x2-y2    tot
    1  0.000  0.067  0.067  0.000  0.000  0.000  0.000  0.000  0.000  0.134
 
band    14 # energy   34.05074904 # occ.  0.00000000
 
ion      s     py     pz     px    dxy    dyz    dz2    dxz  x2-y2    tot
    1  0.042  0.000  0.000  0.080  0.000  0.000  0.000  0.000  0.000  0.122
 
band    15 # energy   42.38847686 # occ.  0.00000000
 
ion      s     py     pz     px    dxy    dyz    dz2    dxz  x2-y2    tot
    1  0.486  0.000  0.000  0.013  0.000  0.000  0.000  0.000  0.000  0.499
 
band    16 # energy   56.51610181 # occ.  0.00000000
 
ion      s     py     pz     px    dxy    dyz    dz2    dxz  x2-y2    tot
    1  3.789  0.018  0.275  2.507  0.000  0.000  0.000  0.000  0.000  6.588
 
band    17 # energy   56.57858105 # occ.  0.00000000
 
ion      s     py     pz     px    dxy    dyz    dz2    dxz  x2-y2    tot
    1  0.000  4.036  0.253  0.000  0.000  0.000  0.000  0.000  0.000  4.290
 
band    18 # energy   56.62769539 # occ.  0.00000000
 
ion      s     py     pz     px    dxy    dyz    dz2    dxz  x2-y2    tot
    1  1.638  0.216  3.430  0.015  0.000  0.000  0.000  0.000  0.000  5.298
 

 k-point     5 :    0.05128205 0.00000000 0.05128205     weight = 0.00833333

band     1 # energy   -3.00352171 # occ.  2.00000000
 
ion      s     py     pz     px    dxy    dyz    dz2    dxz  x2-y2    tot
    1  0.272  0.000  0.000  0.002  0.000  0.000  0.000  0.000  0.000  0.274
 
band     2 # energy   20.01670595 # occ.  0.00000000
 
ion      s     py     pz     px    dxy    dyz    dz2    dxz  x2-y2    tot
    1  0.000  0.076  0.077  0.000  0.000  0.000  0.000  0.000  0.000  0.153
 
band     3 # energy   20.01670596 # occ.  0.00000000
 
ion      s     py     pz     px    dxy    dyz    dz2    dxz  x2-y2    tot
    1  0.000  0.077  0.076  0.000  0.000  0.000  0.000  0.000  0.000  0.153
 
band     4 # energy   20.23179950 # occ.  0.00000000
 
ion      s     py     pz     px    dxy    dyz    dz2    dxz  x2-y2    tot
    1  0.000  0.000  0.000  0.000  0.000  0.000  0.000  0.000  0.000  0.000
 
band     5 # energy   22.33375793 # occ.  0.00000000
 
ion      s     py     pz     px    dxy    dyz    dz2    dxz  x2-y2    tot
    1  0.022  0.000  0.000  0.488  0.000  0.000  0.000  0.000  0.000  0.509
 
band     6 # energy   23.59799722 # occ.  0.00000000
 
ion      s     py     pz     px    dxy    dyz    dz2    dxz  x2-y2    tot
    1  0.000  0.180  0.189  0.000  0.000  0.000  0.000  0.000  0.000  0.369
 
band     7 # energy   23.59799725 # occ.  0.00000000
 
ion      s     py     pz     px    dxy    dyz    dz2    dxz  x2-y2    tot
    1  0.000  0.189  0.180  0.000  0.000  0.000  0.000  0.000  0.000  0.369
 
band     8 # energy   25.70043300 # occ.  0.00000000
 
ion      s     py     pz     px    dxy    dyz    dz2    dxz  x2-y2    tot
    1  0.000  0.000  0.000  0.000  0.000  0.000  0.000  0.000  0.000  0.000
 
band     9 # energy   26.59921533 # occ.  0.00000000
 
ion      s     py     pz     px    dxy    dyz    dz2    dxz  x2-y2    tot
    1  0.000  0.000  0.000  0.038  0.000  0.000  0.000  0.000  0.000  0.038
 
band    10 # energy   27.87942320 # occ.  0.00000000
 
ion      s     py     pz     px    dxy    dyz    dz2    dxz  x2-y2    tot
    1  0.000  0.000  0.000  0.000  0.000  0.000  0.000  0.000  0.000  0.000
 
band    11 # energy   30.75522596 # occ.  0.00000000
 
ion      s     py     pz     px    dxy    dyz    dz2    dxz  x2-y2    tot
    1  0.091  0.000  0.000  0.048  0.000  0.000  0.000  0.000  0.000  0.139
 
band    12 # energy   33.26271562 # occ.  0.00000000
 
ion      s     py     pz     px    dxy    dyz    dz2    dxz  x2-y2    tot
    1  0.000  0.069  0.063  0.000  0.000  0.000  0.000  0.000  0.000  0.132
 
band    13 # energy   33.26271562 # occ.  0.00000000
 
ion      s     py     pz     px    dxy    dyz    dz2    dxz  x2-y2    tot
    1  0.000  0.063  0.069  0.000  0.000  0.000  0.000  0.000  0.000  0.132
 
band    14 # energy   34.57529227 # occ.  0.00000000
 
ion      s     py     pz     px    dxy    dyz    dz2    dxz  x2-y2    tot
    1  0.061  0.000  0.000  0.058  0.000  0.000  0.000  0.000  0.000  0.120
 
band    15 # energy   42.55963999 # occ.  0.00000000
 
ion      s     py     pz     px    dxy    dyz    dz2    dxz  x2-y2    tot
    1  0.474  0.000  0.000  0.022  0.000  0.000  0.000  0.000  0.000  0.497
 
band    16 # energy   56.43489788 # occ.  0.00000000
 
ion      s     py     pz     px    dxy    dyz    dz2    dxz  x2-y2    tot
    1  3.465  0.239  0.184  2.464  0.000  0.000  0.000  0.000  0.000  6.352
 
band    17 # energy   56.50561394 # occ.  0.00000000
 
ion      s     py     pz     px    dxy    dyz    dz2    dxz  x2-y2    tot
    1  0.000  1.822  2.360  0.000  0.000  0.000  0.000  0.000  0.000  4.182
 
band    18 # energy   56.79965299 # occ.  0.00000000
 
ion      s     py     pz     px    dxy    dyz    dz2    dxz  x2-y2    tot
    1  4.189  1.150  0.923  0.569  0.000  0.000  0.000  0.000  0.000  6.832
 

 k-point     6 :    0.06410256 0.00000000 0.06410256     weight = 0.00833333

band     1 # energy   -2.94913299 # occ.  2.00000000
 
ion      s     py     pz     px    dxy    dyz    dz2    dxz  x2-y2    tot
    1  0.271  0.000  0.000  0.003  0.000  0.000  0.000  0.000  0.000  0.274
 
band     2 # energy   19.69924488 # occ.  0.00000000
 
ion      s     py     pz     px    dxy    dyz    dz2    dxz  x2-y2    tot
    1  0.000  0.088  0.089  0.000  0.000  0.000  0.000  0.000  0.000  0.177
 
band     3 # energy   19.69924489 # occ.  0.00000000
 
ion      s     py     pz     px    dxy    dyz    dz2    dxz  x2-y2    tot
    1  0.000  0.089  0.088  0.000  0.000  0.000  0.000  0.000  0.000  0.177
 
band     4 # energy   19.93657182 # occ.  0.00000000
 
ion      s     py     pz     px    dxy    dyz    dz2    dxz  x2-y2    tot
    1  0.000  0.000  0.000  0.000  0.000  0.000  0.000  0.000  0.000  0.000
 
band     5 # energy   22.21067843 # occ.  0.00000000
 
ion      s     py     pz     px    dxy    dyz    dz2    dxz  x2-y2    tot
    1  0.033  0.000  0.000  0.471  0.000  0.000  0.000  0.000  0.000  0.504
 
band     6 # energy   23.99496332 # occ.  0.00000000
 
ion      s     py     pz     px    dxy    dyz    dz2    dxz  x2-y2    tot
    1  0.000  0.173  0.173  0.000  0.000  0.000  0.000  0.000  0.000  0.345
 
band     7 # energy   23.99496335 # occ.  0.00000000
 
ion      s     py     pz     px    dxy    dyz    dz2    dxz  x2-y2    tot
    1  0.000  0.173  0.173  0.000  0.000  0.000  0.000  0.000  0.000  0.345
 
band     8 # energy   26.04273456 # occ.  0.00000000
 
ion      s     py     pz     px    dxy    dyz    dz2    dxz  x2-y2    tot
    1  0.000  0.000  0.000  0.052  0.000  0.000  0.000  0.000  0.000  0.052
 
band     9 # energy   26.10436913 # occ.  0.00000000
 
ion      s     py     pz     px    dxy    dyz    dz2    dxz  x2-y2    tot
    1  0.000  0.000  0.000  0.000  0.000  0.000  0.000  0.000  0.000  0.000
 
band    10 # energy   27.92974047 # occ.  0.00000000
 
ion      s     py     pz     px    dxy    dyz    dz2    dxz  x2-y2    tot
    1  0.000  0.000  0.000  0.000  0.000  0.000  0.000  0.000  0.000  0.000
 
band    11 # energy   30.85138400 # occ.  0.00000000
 
ion      s     py     pz     px    dxy    dyz    dz2    dxz  x2-y2    tot
    1  0.078  0.000  0.000  0.057  0.000  0.000  0.000  0.000  0.000  0.135
 
band    12 # energy   33.32437556 # occ.  0.00000000
 
ion      s     py     pz     px    dxy    dyz    dz2    dxz  x2-y2    tot
    1  0.000  0.064  0.064  0.000  0.000  0.000  0.000  0.000  0.000  0.129
 
band    13 # energy   33.32437556 # occ.  0.00000000
 
ion      s     py     pz     px    dxy    dyz    dz2    dxz  x2-y2    tot
    1  0.000  0.064  0.064  0.000  0.000  0.000  0.000  0.000  0.000  0.129
 
band    14 # energy   35.13478940 # occ.  0.00000000
 
ion      s     py     pz     px    dxy    dyz    dz2    dxz  x2-y2    tot
    1  0.082  0.000  0.000  0.039  0.000  0.000  0.000  0.000  0.000  0.121
 
band    15 # energy   42.78365911 # occ.  0.00000000
 
ion      s     py     pz     px    dxy    dyz    dz2    dxz  x2-y2    tot
    1  0.460  0.000  0.000  0.034  0.000  0.000  0.000  0.000  0.000  0.494
 
band    16 # energy   56.34596621 # occ.  0.00000000
 
ion      s     py     pz     px    dxy    dyz    dz2    dxz  x2-y2    tot
    1  4.414  0.038  0.031  2.385  0.000  0.000  0.000  0.000  0.000  6.869
 
band    17 # energy   56.39237734 # occ.  0.00000000
 
ion      s     py     pz     px    dxy    dyz    dz2    dxz  x2-y2    tot
    1  0.001  1.692  2.146  0.000  0.000  0.000  0.000  0.000  0.000  3.838
 
band    18 # energy   56.40308324 # occ.  0.00000000
 
ion      s     py     pz     px    dxy    dyz    dz2    dxz  x2-y2    tot
    1  0.192  2.131  1.709  0.016  0.000  0.000  0.000  0.000  0.000  4.047
 

 k-point     7 :    0.07692308 0.00000000 0.07692308     weight = 0.00833333

band     1 # energy   -2.88270580 # occ.  2.00000000
 
ion      s     py     pz     px    dxy    dyz    dz2    dxz  x2-y2    tot
    1  0.270  0.000  0.000  0.005  0.000  0.000  0.000  0.000  0.000  0.274
 
band     2 # energy   19.38041250 # occ.  0.00000000
 
ion      s     py     pz     px    dxy    dyz    dz2    dxz  x2-y2    tot
    1  0.000  0.097  0.099  0.000  0.000  0.000  0.000  0.000  0.000  0.196
 
band     3 # energy   19.38041251 # occ.  0.00000000
 
ion      s     py     pz     px    dxy    dyz    dz2    dxz  x2-y2    tot
    1  0.000  0.099  0.097  0.000  0.000  0.000  0.000  0.000  0.000  0.196
 
band     4 # energy   19.62335936 # occ.  0.00000000
 
ion      s     py     pz     px    dxy    dyz    dz2    dxz  x2-y2    tot
    1  0.000  0.000  0.000  0.000  0.000  0.000  0.000  0.000  0.000  0.000
 
band     5 # energy   22.06726911 # occ.  0.00000000
 
ion      s     py     pz     px    dxy    dyz    dz2    dxz  x2-y2    tot
    1  0.045  0.000  0.000  0.452  0.000  0.000  0.000  0.000  0.000  0.497
 
band     6 # energy   24.41017614 # occ.  0.00000000
 
ion      s     py     pz     px    dxy    dyz    dz2    dxz  x2-y2    tot
    1  0.000  0.169  0.158  0.000  0.000  0.000  0.000  0.000  0.000  0.328
 
band     7 # energy   24.41017617 # occ.  0.00000000
 
ion      s     py     pz     px    dxy    dyz    dz2    dxz  x2-y2    tot
    1  0.000  0.158  0.169  0.000  0.000  0.000  0.000  0.000  0.000  0.328
 
band     8 # energy   25.43825455 # occ.  0.00000000
 
ion      s     py     pz     px    dxy    dyz    dz2    dxz  x2-y2    tot
    1  0.000  0.000  0.000  0.066  0.000  0.000  0.000  0.000  0.000  0.066
 
band     9 # energy   26.55043616 # occ.  0.00000000
 
ion      s     py     pz     px    dxy    dyz    dz2    dxz  x2-y2    tot
    1  0.000  0.000  0.000  0.000  0.000  0.000  0.000  0.000  0.000  0.000
 
band    10 # energy   27.99117525 # occ.  0.00000000
 
ion      s     py     pz     px    dxy    dyz    dz2    dxz  x2-y2    tot
    1  0.000  0.000  0.000  0.000  0.000  0.000  0.000  0.000  0.000  0.000
 
band    11 # energy   30.99252130 # occ.  0.00000000
 
ion      s     py     pz     px    dxy    dyz    dz2    dxz  x2-y2    tot
    1  0.066  0.000  0.000  0.064  0.000  0.000  0.000  0.000  0.000  0.130
 
band    12 # energy   33.40042127 # occ.  0.00000000
 
ion      s     py     pz     px    dxy    dyz    dz2    dxz  x2-y2    tot
    1  0.000  0.063  0.063  0.000  0.000  0.000  0.000  0.000  0.000  0.125
 
band    13 # energy   33.40042127 # occ.  0.00000000
 
ion      s     py     pz     px    dxy    dyz    dz2    dxz  x2-y2    tot
    1  0.000  0.063  0.063  0.000  0.000  0.000  0.000  0.000  0.000  0.125
 
band    14 # energy   35.70611731 # occ.  0.00000000
 
ion      s     py     pz     px    dxy    dyz    dz2    dxz  x2-y2    tot
    1  0.104  0.000  0.000  0.023  0.000  0.000  0.000  0.000  0.000  0.127
 
band    15 # energy   43.06299419 # occ.  0.00000000
 
ion      s     py     pz     px    dxy    dyz    dz2    dxz  x2-y2    tot
    1  0.443  0.000  0.000  0.046  0.000  0.000  0.000  0.000  0.000  0.489
 
band    16 # energy   56.23019393 # occ.  0.00000000
 
ion      s     py     pz     px    dxy    dyz    dz2    dxz  x2-y2    tot
    1  0.004  2.945  0.465  0.011  0.000  0.000  0.000  0.000  0.000  3.426
 
band    17 # energy   56.23261725 # occ.  0.00000000
 
ion      s     py     pz     px    dxy    dyz    dz2    dxz  x2-y2    tot
    1  0.092  0.436  2.892  0.119  0.000  0.000  0.000  0.000  0.000  3.539
 
band    18 # energy   56.25805454 # occ.  0.00000000
 
ion      s     py     pz     px    dxy    dyz    dz2    dxz  x2-y2    tot
    1  5.038  0.025  0.106  1.997  0.000  0.000  0.000  0.000  0.000  7.166
 

 k-point     8 :    0.08974359 0.00000000 0.08974359     weight = 0.00833333

band     1 # energy   -2.80423670 # occ.  2.00000000
 
ion      s     py     pz     px    dxy    dyz    dz2    dxz  x2-y2    tot
    1  0.268  0.000  0.000  0.006  0.000  0.000  0.000  0.000  0.000  0.274
 
band     2 # energy   19.06460801 # occ.  0.00000000
 
ion      s     py     pz     px    dxy    dyz    dz2    dxz  x2-y2    tot
    1  0.000  0.106  0.105  0.000  0.000  0.000  0.000  0.000  0.000  0.211
 
band     3 # energy   19.06460803 # occ.  0.00000000
 
ion      s     py     pz     px    dxy    dyz    dz2    dxz  x2-y2    tot
    1  0.000  0.105  0.106  0.000  0.000  0.000  0.000  0.000  0.000  0.211
 
band     4 # energy   19.30102815 # occ.  0.00000000
 
ion      s     py     pz     px    dxy    dyz    dz2    dxz  x2-y2    tot
    1  0.000  0.000  0.000  0.000  0.000  0.000  0.000  0.000  0.000  0.000
 
band     5 # energy   21.90665808 # occ.  0.00000000
 
ion      s     py     pz     px    dxy    dyz    dz2    dxz  x2-y2    tot
    1  0.058  0.000  0.000  0.432  0.000  0.000  0.000  0.000  0.000  0.490
 
band     6 # energy   24.80292296 # occ.  0.00000000
 
ion      s     py     pz     px    dxy    dyz    dz2    dxz  x2-y2    tot
    1  0.000  0.000  0.000  0.079  0.000  0.000  0.000  0.000  0.000  0.079
 
band     7 # energy   24.83871766 # occ.  0.00000000
 
ion      s     py     pz     px    dxy    dyz    dz2    dxz  x2-y2    tot
    1  0.000  0.156  0.158  0.000  0.000  0.000  0.000  0.000  0.000  0.313
 
band     8 # energy   24.83871769 # occ.  0.00000000
 
ion      s     py     pz     px    dxy    dyz    dz2    dxz  x2-y2    tot
    1  0.000  0.158  0.156  0.000  0.000  0.000  0.000  0.000  0.000  0.313
 
band     9 # energy   27.02976112 # occ.  0.00000000
 
ion      s     py     pz     px    dxy    dyz    dz2    dxz  x2-y2    tot
    1  0.000  0.000  0.000  0.000  0.000  0.000  0.000  0.000  0.000  0.000
 
band    10 # energy   28.06368734 # occ.  0.00000000
 
ion      s     py     pz     px    dxy    dyz    dz2    dxz  x2-y2    tot
    1  0.000  0.000  0.000  0.000  0.000  0.000  0.000  0.000  0.000  0.000
 
band    11 # energy   31.17079235 # occ.  0.00000000
 
ion      s     py     pz     px    dxy    dyz    dz2    dxz  x2-y2    tot
    1  0.056  0.000  0.000  0.069  0.000  0.000  0.000  0.000  0.000  0.125
 
band    12 # energy   33.49128924 # occ.  0.00000000
 
ion      s     py     pz     px    dxy    dyz    dz2    dxz  x2-y2    tot
    1  0.000  0.061  0.061  0.000  0.000  0.000  0.000  0.000  0.000  0.121
 
band    13 # energy   33.49128924 # occ.  0.00000000
 
ion      s     py     pz     px    dxy    dyz    dz2    dxz  x2-y2    tot
    1  0.000  0.061  0.061  0.000  0.000  0.000  0.000  0.000  0.000  0.121
 
band    14 # energy   36.27402699 # occ.  0.00000000
 
ion      s     py     pz     px    dxy    dyz    dz2    dxz  x2-y2    tot
    1  0.127  0.000  0.000  0.012  0.000  0.000  0.000  0.000  0.000  0.139
 
band    15 # energy   43.40002646 # occ.  0.00000000
 
ion      s     py     pz     px    dxy    dyz    dz2    dxz  x2-y2    tot
    1  0.423  0.000  0.000  0.059  0.000  0.000  0.000  0.000  0.000  0.482
 
band    16 # energy   55.99773068 # occ.  0.00000000
 