PROCAR lm decomposed
# of k-points:  360         # of bands:   12         # of ions:    1

 k-point     1 :    0.00000000 0.00000000 0.00000000     weight = 0.00277778

band     1 # energy   -3.10079663 # occ.  1.00000000
 
ion      s     py     pz     px    dxy    dyz    dz2    dxz  x2-y2    tot
    1  0.274  0.000  0.000  0.000  0.000  0.000  0.000  0.000  0.000  0.274
    1 -0.001 -0.000 -0.000 -0.000  0.000  0.000  0.000  0.000  0.000 -0.001
    1 -0.000  0.000  0.000 -0.000  0.000  0.000  0.000  0.000  0.000 -0.000
    1  0.274 -0.000  0.000 -0.000  0.000  0.000  0.000  0.000  0.000  0.274
 
band     2 # energy   -3.10079244 # occ.  1.00000000
 
ion      s     py     pz     px    dxy    dyz    dz2    dxz  x2-y2    tot
    1  0.274  0.000  0.000  0.000  0.000  0.000  0.000  0.000  0.000  0.274
    1  0.001 -0.000 -0.000  0.000  0.000  0.000  0.000  0.000  0.000  0.001
    1  0.000  0.000  0.000  0.000  0.000  0.000  0.000  0.000  0.000  0.000
    1 -0.274 -0.000  0.000 -0.000  0.000  0.000  0.000  0.000  0.000 -0.274
 
band     3 # energy   20.90374080 # occ.  0.00000000
 
ion      s     py     pz     px    dxy    dyz    dz2    dxz  x2-y2    tot
    1  0.000  0.000  0.000  0.000  0.000  0.000  0.000  0.000  0.000  0.000
    1 -0.000  0.000  0.000 -0.000  0.000  0.000  0.000  0.000  0.000 -0.000
    1 -0.000 -0.000  0.000  0.000  0.000  0.000  0.000  0.000  0.000 -0.000
    1  0.000  0.000 -0.000  0.000  0.000  0.000  0.000  0.000  0.000  0.000
 
band     4 # energy   20.90374193 # occ.  0.00000000
 
ion      s     py     pz     px    dxy    dyz    dz2    dxz  x2-y2    tot
    1  0.000  0.000  0.000  0.000  0.000  0.000  0.000  0.000  0.000  0.000
    1  0.000 -0.000 -0.000 -0.000  0.000  0.000  0.000  0.000  0.000  0.000
    1 -0.000  0.000  0.000 -0.000  0.000  0.000  0.000  0.000  0.000 -0.000
    1 -0.000  0.000  0.000 -0.000  0.000  0.000  0.000  0.000  0.000 -0.000
 
band     5 # energy   20.90374205 # occ.  0.00000000
 
ion      s     py     pz     px    dxy    dyz    dz2    dxz  x2-y2    tot
    1  0.000  0.000  0.000  0.000  0.000  0.000  0.000  0.000  0.000  0.000
    1  0.000  0.000  0.000 -0.000  0.000  0.000  0.000  0.000  0.000  0.000
    1 -0.000 -0.000  0.000  0.000  0.000  0.000  0.000  0.000  0.000 -0.000
    1 -0.000  0.000 -0.000  0.000  0.000  0.000  0.000  0.000  0.000 -0.000
 
band     6 # energy   20.90374323 # occ.  0.00000000
 
ion      s     py     pz     px    dxy    dyz    dz2    dxz  x2-y2    tot
    1  0.000  0.000  0.000  0.000  0.000  0.000  0.000  0.000  0.000  0.000
    1  0.000 -0.000  0.000 -0.000  0.000  0.000  0.000  0.000  0.000  0.000
    1  0.000 -0.000  0.000 -0.000  0.000  0.000  0.000  0.000  0.000  0.000
    1  0.000  0.000  0.000  0.000  0.000  0.000  0.000  0.000  0.000  0.000
 
band     7 # energy   20.90374335 # occ.  0.00000000
 
ion      s     py     pz     px    dxy    dyz    dz2    dxz  x2-y2    tot
    1  0.000  0.000  0.000  0.000  0.000  0.000  0.000  0.000  0.000  0.000
    1 -0.000  0.000 -0.000 -0.000  0.000  0.000  0.000  0.000  0.000 -0.000
    1 -0.000  0.000  0.000  0.000  0.000  0.000  0.000  0.000  0.000 -0.000
    1  0.000  0.000 -0.000 -0.000  0.000  0.000  0.000  0.000  0.000  0.000
 
band     8 # energy   20.90374450 # occ.  0.00000000
 
ion      s     py     pz     px    dxy    dyz    dz2    dxz  x2-y2    tot
    1  0.000  0.000  0.000  0.000  0.000  0.000  0.000  0.000  0.000  0.000
    1  0.000 -0.000 -0.000  0.000  0.000  0.000  0.000  0.000  0.000  0.000
    1 -0.000  0.000 -0.000 -0.000  0.000  0.000  0.000  0.000  0.000 -0.000
    1 -0.000 -0.000  0.000 -0.000  0.000  0.000  0.000  0.000  0.000 -0.000
 
band     9 # energy   22.52276789 # occ.  0.00000000
 
ion      s     py     pz     px    dxy    dyz    dz2    dxz  x2-y2    tot
    1  0.000  0.174  0.174  0.174  0.000  0.000  0.000  0.000  0.000  0.523
    1 -0.000  0.000  0.001 -0.000  0.000  0.000  0.000  0.000  0.000  0.001
    1  0.000 -0.001  0.001  0.001  0.000  0.000  0.000  0.000  0.000  0.001
    1  0.000  0.174 -0.174  0.174  0.000  0.000  0.000  0.000  0.000  0.175
 
band    10 # energy   22.52277367 # occ.  0.00000000
 
ion      s     py     pz     px    dxy    dyz    dz2    dxz  x2-y2    tot
    1  0.000  0.174  0.174  0.174  0.000  0.000  0.000  0.000  0.000  0.523
    1 -0.000 -0.000 -0.000  0.000  0.000  0.000  0.000  0.000  0.000 -0.000
    1  0.000  0.001 -0.001 -0.001  0.000  0.000  0.000  0.000  0.000 -0.001
    1 -0.000 -0.174  0.174 -0.174  0.000  0.000  0.000  0.000  0.000 -0.174
 
band    11 # energy   22.58847489 # occ.  0.00000000
 
ion      s     py     pz     px    dxy    dyz    dz2    dxz  x2-y2    tot
    1  0.000  0.173  0.173  0.173  0.000  0.000  0.000  0.000  0.000  0.519
    1  0.000  0.122  0.122 -0.013  0.000  0.000  0.000  0.000  0.000  0.231
    1  0.000 -0.013  0.122  0.122  0.000  0.000  0.000  0.000  0.000  0.231
    1 -0.000  0.122 -0.013  0.122  0.000  0.000  0.000  0.000  0.000  0.231
 
band    12 # energy   22.58847797 # occ.  0.00000000
 
ion      s     py     pz     px    dxy    dyz    dz2    dxz  x2-y2    tot
    1  0.000  0.173  0.173  0.173  0.000  0.000  0.000  0.000  0.000  0.519
    1 -0.000 -0.122 -0.122  0.013  0.000  0.000  0.000  0.000  0.000 -0.231
    1 -0.000  0.013 -0.122 -0.122  0.000  0.000  0.000  0.000  0.000 -0.231
    1 -0.000 -0.122  0.013 -0.122  0.000  0.000  0.000  0.000  0.000 -0.231
 

 k-point     2 :    0.00420168 0.00000000 0.00420168     weight = 0.00277778

band     1 # energy   -3.10015026 # occ.  1.00000000
 
ion      s     py     pz     px    dxy    dyz    dz2    dxz  x2-y2    tot
    1  0.274  0.000  0.000  0.000  0.000  0.000  0.000  0.000  0.000  0.274
    1 -0.001  0.000  0.000 -0.000  0.000  0.000  0.000  0.000  0.000 -0.001
    1 -0.000  0.000 -0.000 -0.000  0.000  0.000  0.000  0.000  0.000 -0.000
    1  0.274  0.000 -0.000  0.000  0.000  0.000  0.000  0.000  0.000  0.274
 
band     2 # energy   -3.10014607 # occ.  1.00000000
 
ion      s     py     pz     px    dxy    dyz    dz2    dxz  x2-y2    tot
    1  0.274  0.000  0.000  0.000  0.000  0.000  0.000  0.000  0.000  0.274
    1  0.001 -0.000 -0.000  0.000  0.000  0.000  0.000  0.000  0.000  0.001
    1  0.000 -0.000  0.000  0.000  0.000  0.000  0.000  0.000  0.000  0.000
    1 -0.274 -0.000  0.000 -0.000  0.000  0.000  0.000  0.000  0.000 -0.274
 
band     3 # energy   20.89395224 # occ.  0.00000000
 
ion      s     py     pz     px    dxy    dyz    dz2    dxz  x2-y2    tot
    1  0.000  0.002  0.002  0.000  0.000  0.000  0.000  0.000  0.000  0.003
    1 -0.000  0.000  0.000 -0.000  0.000  0.000  0.000  0.000  0.000  0.000
    1  0.000 -0.000  0.000  0.000  0.000  0.000  0.000  0.000  0.000 -0.000
    1  0.000  0.002 -0.002  0.000  0.000  0.000  0.000  0.000  0.000  0.000
 
band     4 # energy   20.89395410 # occ.  0.00000000
 
ion      s     py     pz     px    dxy    dyz    dz2    dxz  x2-y2    tot
    1  0.000  0.002  0.002  0.000  0.000  0.000  0.000  0.000  0.000  0.003
    1  0.000 -0.000 -0.000  0.000  0.000  0.000  0.000  0.000  0.000 -0.000
    1 -0.000  0.000 -0.000 -0.000  0.000  0.000  0.000  0.000  0.000 -0.000
    1 -0.000 -0.002  0.002 -0.000  0.000  0.000  0.000  0.000  0.000  0.000
 
band     5 # energy   20.89423146 # occ.  0.00000000
 
ion      s     py     pz     px    dxy    dyz    dz2    dxz  x2-y2    tot
    1  0.000  0.002  0.002  0.000  0.000  0.000  0.000  0.000  0.000  0.003
    1  0.000  0.000  0.000  0.000  0.000  0.000  0.000  0.000  0.000  0.000
    1  0.000  0.000 -0.000  0.000  0.000  0.000  0.000  0.000  0.000  0.000
    1  0.000  0.002 -0.002  0.000  0.000  0.000  0.000  0.000  0.000 -0.000
 
band     6 # energy   20.89423191 # occ.  0.00000000
 
ion      s     py     pz     px    dxy    dyz    dz2    dxz  x2-y2    tot
    1  0.000  0.002  0.002  0.000  0.000  0.000  0.000  0.000  0.000  0.003
    1  0.000 -0.000 -0.000 -0.000  0.000  0.000  0.000  0.000  0.000 -0.000
    1  0.000 -0.000  0.000 -0.000  0.000  0.000  0.000  0.000  0.000  0.000
    1 -0.000 -0.002  0.002 -0.000  0.000  0.000  0.000  0.000  0.000 -0.000
 
band     7 # energy   20.89821981 # occ.  0.00000000
 
ion      s     py     pz     px    dxy    dyz    dz2    dxz  x2-y2    tot
    1  0.000  0.000  0.000  0.000  0.000  0.000  0.000  0.000  0.000  0.000
    1 -0.000 -0.000  0.000  0.000  0.000  0.000  0.000  0.000  0.000 -0.000
    1 -0.000  0.000  0.000 -0.000  0.000  0.000  0.000  0.000  0.000  0.000
    1 -0.000 -0.000 -0.000 -0.000  0.000  0.000  0.000  0.000  0.000 -0.000
 
band     8 # energy   20.89822098 # occ.  0.00000000
 
ion      s     py     pz     px    dxy    dyz    dz2    dxz  x2-y2    tot
    1  0.000  0.000  0.000  0.000  0.000  0.000  0.000  0.000  0.000  0.000
    1  0.000 -0.000 -0.000 -0.000  0.000  0.000  0.000  0.000  0.000 -0.000
    1  0.000 -0.000 -0.000  0.000  0.000  0.000  0.000  0.000  0.000 -0.000
    1  0.000  0.000  0.000  0.000  0.000  0.000  0.000  0.000  0.000  0.000
 
band     9 # energy   22.52894745 # occ.  0.00000000
 
ion      s     py     pz     px    dxy    dyz    dz2    dxz  x2-y2    tot
    1  0.000  0.150  0.150  0.221  0.000  0.000  0.000  0.000  0.000  0.521
    1 -0.000  0.001  0.001 -0.002  0.000  0.000  0.000  0.000  0.000  0.001
    1  0.000 -0.001  0.001  0.002  0.000  0.000  0.000  0.000  0.000  0.002
    1  0.000  0.150 -0.150  0.221  0.000  0.000  0.000  0.000  0.000  0.221
 
band    10 # energy   22.52895342 # occ.  0.00000000
 
ion      s     py     pz     px    dxy    dyz    dz2    dxz  x2-y2    tot
    1  0.000  0.150  0.150  0.221  0.000  0.000  0.000  0.000  0.000  0.521
    1  0.000 -0.001 -0.001  0.002  0.000  0.000  0.000  0.000  0.000 -0.001
    1 -0.000  0.001 -0.001 -0.002  0.000  0.000  0.000  0.000  0.000 -0.002
    1 -0.000 -0.150  0.150 -0.221  0.000  0.000  0.000  0.000  0.000 -0.221
 
band    11 # energy   22.59141198 # occ.  0.00000000
 
ion      s     py     pz     px    dxy    dyz    dz2    dxz  x2-y2    tot
    1  0.000  0.109  0.109  0.299  0.000  0.000  0.000  0.000  0.000  0.518
    1 -0.000  0.001  0.001 -0.002  0.000  0.000  0.000  0.000  0.000 -0.001
    1  0.000 -0.001  0.002  0.004  0.000  0.000  0.000  0.000  0.000  0.004
    1  0.000  0.109 -0.109  0.299  0.000  0.000  0.000  0.000  0.000  0.299
 
band    12 # energy   22.59141726 # occ.  0.00000000
 
ion      s     py     pz     px    dxy    dyz    dz2    dxz  x2-y2    tot
    1  0.000  0.109  0.109  0.299  0.000  0.000  0.000  0.000  0.000  0.518
    1  0.000 -0.001 -0.001  0.002  0.000  0.000  0.000  0.000  0.000  0.001
    1 -0.000  0.001 -0.002 -0.004  0.000  0.000  0.000  0.000  0.000 -0.004
    1 -0.000 -0.109  0.109 -0.299  0.000  0.000  0.000  0.000  0.000 -0.299
 

 k-point     3 :    0.00840336 0.00000000 0.00840336     weight = 0.00277778

band     1 # energy   -3.09820432 # occ.  1.00000000
 
ion      s     py     pz     px    dxy    dyz    dz2    dxz  x2-y2    tot
    1  0.274  0.000  0.000  0.000  0.000  0.000  0.000  0.000  0.000  0.274
    1 -0.001  0.000  0.000 -0.000  0.000  0.000  0.000  0.000  0.000 -0.001
    1 -0.000  0.000 -0.000 -0.000  0.000  0.000  0.000  0.000  0.000 -0.000
    1  0.274  0.000 -0.000  0.000  0.000  0.000  0.000  0.000  0.000  0.274
 
band     2 # energy   -3.09820013 # occ.  1.00000000
 
ion      s     py     pz     px    dxy    dyz    dz2    dxz  x2-y2    tot
    1  0.274  0.000  0.000  0.000  0.000  0.000  0.000  0.000  0.000  0.274
    1  0.001 -0.000 -0.000  0.000  0.000  0.000  0.000  0.000  0.000  0.001
    1  0.000 -0.000  0.000  0.000  0.000  0.000  0.000  0.000  0.000  0.000
    1 -0.274 -0.000  0.000 -0.000  0.000  0.000  0.000  0.000  0.000 -0.274
 
band     3 # energy   20.86532182 # occ.  0.00000000
 
ion      s     py     pz     px    dxy    dyz    dz2    dxz  x2-y2    tot
    1  0.000  0.007  0.006  0.000  0.000  0.000  0.000  0.000  0.000  0.013
    1 -0.000  0.000  0.000 -0.000  0.000  0.000  0.000  0.000  0.000  0.000
    1  0.000 -0.000  0.000  0.000  0.000  0.000  0.000  0.000  0.000 -0.000
    1  0.000  0.007 -0.006  0.000  0.000  0.000  0.000  0.000  0.000  0.000
 
band     4 # energy   20.86532374 # occ.  0.00000000
 
ion      s     py     pz     px    dxy    dyz    dz2    dxz  x2-y2    tot
    1  0.000  0.006  0.007  0.000  0.000  0.000  0.000  0.000  0.000  0.013
    1  0.000 -0.000 -0.000  0.000  0.000  0.000  0.000  0.000  0.000 -0.000
    1 -0.000  0.000 -0.000 -0.000  0.000  0.000  0.000  0.000  0.000 -0.000
    1 -0.000 -0.006  0.007 -0.000  0.000  0.000  0.000  0.000  0.000  0.000
 
band     5 # energy   20.86638034 # occ.  0.00000000
 
ion      s     py     pz     px    dxy    dyz    dz2    dxz  x2-y2    tot
    1  0.000  0.006  0.006  0.000  0.000  0.000  0.000  0.000  0.000  0.012
    1 -0.000  0.000  0.000  0.000  0.000  0.000  0.000  0.000  0.000  0.001
    1 -0.000  0.000 -0.000  0.000  0.000  0.000  0.000  0.000  0.000  0.000
    1  0.000  0.006 -0.006  0.000  0.000  0.000  0.000  0.000  0.000 -0.000
 
band     6 # energy   20.86638085 # occ.  0.00000000
 
ion      s     py     pz     px    dxy    dyz    dz2    dxz  x2-y2    tot
    1  0.000  0.006  0.006  0.000  0.000  0.000  0.000  0.000  0.000  0.012
    1 -0.000 -0.000 -0.000 -0.000  0.000  0.000  0.000  0.000  0.000 -0.001
    1 -0.000 -0.000  0.000 -0.000  0.000  0.000  0.000  0.000  0.000  0.000
    1  0.000 -0.006  0.006 -0.000  0.000  0.000  0.000  0.000  0.000 -0.000
 
band     7 # energy   20.88176801 # occ.  0.00000000
 
ion      s     py     pz     px    dxy    dyz    dz2    dxz  x2-y2    tot
    1  0.000  0.000  0.000  0.000  0.000  0.000  0.000  0.000  0.000  0.000
    1 -0.000 -0.000  0.000  0.000  0.000  0.000  0.000  0.000  0.000 -0.000
    1 -0.000  0.000  0.000  0.000  0.000  0.000  0.000  0.000  0.000  0.000
    1 -0.000 -0.000 -0.000 -0.000  0.000  0.000  0.000  0.000  0.000 -0.000
 
band     8 # energy   20.88176915 # occ.  0.00000000
 
ion      s     py     pz     px    dxy    dyz    dz2    dxz  x2-y2    tot
    1  0.000  0.000  0.000  0.000  0.000  0.000  0.000  0.000  0.000  0.000
    1  0.000 -0.000 -0.000 -0.000  0.000  0.000  0.000  0.000  0.000 -0.000
    1  0.000 -0.000 -0.000 -0.000  0.000  0.000  0.000  0.000  0.000 -0.000
    1  0.000  0.000  0.000  0.000  0.000  0.000  0.000  0.000  0.000  0.000
 
band     9 # energy   22.54010173 # occ.  0.00000000
 
ion      s     py     pz     px    dxy    dyz    dz2    dxz  x2-y2    tot
    1  0.000  0.076  0.076  0.365  0.000  0.000  0.000  0.000  0.000  0.518
    1 -0.000  0.001  0.001 -0.005  0.000  0.000  0.000  0.000  0.000 -0.003
    1  0.000 -0.000  0.000  0.001  0.000  0.000  0.000  0.000  0.000  0.001
    1  0.000  0.076 -0.076  0.365  0.000  0.000  0.000  0.000  0.000  0.365
 
band    10 # energy   22.54010811 # occ.  0.00000000
 
ion      s     py     pz     px    dxy    dyz    dz2    dxz  x2-y2    tot
    1  0.000  0.076  0.076  0.365  0.000  0.000  0.000  0.000  0.000  0.518
    1  0.000 -0.001 -0.001  0.005  0.000  0.000  0.000  0.000  0.000  0.003
    1 -0.000  0.000 -0.000 -0.001  0.000  0.000  0.000  0.000  0.000 -0.001
    1 -0.000 -0.076  0.076 -0.365  0.000  0.000  0.000  0.000  0.000 -0.365
 
band    11 # energy   22.60688161 # occ.  0.00000000
 
ion      s     py     pz     px    dxy    dyz    dz2    dxz  x2-y2    tot
    1  0.000  0.178  0.178  0.154  0.000  0.000  0.000  0.000  0.000  0.511
    1 -0.000  0.001  0.001 -0.000  0.000  0.000  0.000  0.000  0.000  0.001
    1  0.000 -0.004  0.004  0.003  0.000  0.000  0.000  0.000  0.000  0.004
    1  0.000  0.178 -0.178  0.154  0.000  0.000  0.000  0.000  0.000  0.155
 
band    12 # energy   22.60688644 # occ.  0.00000000
 
ion      s     py     pz     px    dxy    dyz    dz2    dxz  x2-y2    tot
    1  0.000  0.178  0.178  0.154  0.000  0.000  0.000  0.000  0.000  0.511
    1  0.000 -0.001 -0.001  0.000  0.000  0.000  0.000  0.000  0.000 -0.001
    1 -0.000  0.004 -0.004 -0.003  0.000  0.000  0.000  0.000  0.000 -0.003
    1 -0.000 -0.178  0.178 -0.154  0.000  0.000  0.000  0.000  0.000 -0.154
 

 k-point     4 :    0.01260504 0.00000000 0.01260504     weight = 0.00277778

band     1 # energy   -3.09495900 # occ.  1.00000000
 
ion      s     py     pz     px    dxy    dyz    dz2    dxz  x2-y2    tot
    1  0.274  0.000  0.000  0.000  0.000  0.000  0.000  0.000  0.000  0.274
    1 -0.001  0.000  0.000 -0.000  0.000  0.000  0.000  0.000  0.000 -0.001
    1 -0.000  0.000 -0.000 -0.000  0.000  0.000  0.000  0.000  0.000 -0.000
    1  0.274  0.000 -0.000  0.000  0.000  0.000  0.000  0.000  0.000  0.274
 
band     2 # energy   -3.09495481 # occ.  1.00000000
 
ion      s     py     pz     px    dxy    dyz    dz2    dxz  x2-y2    tot
    1  0.274  0.000  0.000  0.000  0.000  0.000  0.000  0.000  0.000  0.274
    1  0.001 -0.000 -0.000  0.000  0.000  0.000  0.000  0.000  0.000  0.001
    1  0.000 -0.000  0.000  0.000  0.000  0.000  0.000  0.000  0.000  0.000
    1 -0.274 -0.000  0.000 -0.000  0.000  0.000  0.000  0.000  0.000 -0.274
 
band     3 # energy   20.81982297 # occ.  0.00000000
 
ion      s     py     pz     px    dxy    dyz    dz2    dxz  x2-y2    tot
    1  0.000  0.013  0.013  0.000  0.000  0.000  0.000  0.000  0.000  0.027
    1 -0.000  0.000  0.000 -0.000  0.000  0.000  0.000  0.000  0.000  0.000
    1  0.000 -0.000  0.000  0.000  0.000  0.000  0.000  0.000  0.000 -0.000
    1  0.000  0.013 -0.013  0.000  0.000  0.000  0.000  0.000  0.000  0.000
 
band     4 # energy   20.81982498 # occ.  0.00000000
 
ion      s     py     pz     px    dxy    dyz    dz2    dxz  x2-y2    tot
    1  0.000  0.013  0.013  0.000  0.000  0.000  0.000  0.000  0.000  0.027
    1  0.000 -0.000 -0.000  0.000  0.000  0.000  0.000  0.000  0.000 -0.000
    1 -0.000  0.000 -0.000 -0.000  0.000  0.000  0.000  0.000  0.000 -0.000
    1 -0.000 -0.013  0.013 -0.000  0.000  0.000  0.000  0.000  0.000  0.000
 
band     5 # energy   20.82202177 # occ.  0.00000000
 
ion      s     py     pz     px    dxy    dyz    dz2    dxz  x2-y2    tot
    1  0.000  0.013  0.013  0.000  0.000  0.000  0.000  0.000  0.000  0.026
    1 -0.000  0.000  0.000  0.000  0.000  0.000  0.000  0.000  0.000  0.001
    1 -0.000  0.000 -0.000  0.000  0.000  0.000  0.000  0.000  0.000  0.000
    1 -0.000  0.013 -0.013  0.000  0.000  0.000  0.000  0.000  0.000 -0.000
 
band     6 # energy   20.82202236 # occ.  0.00000000
 
ion      s     py     pz     px    dxy    dyz    dz2    dxz  x2-y2    tot
    1  0.000  0.013  0.013  0.000  0.000  0.000  0.000  0.000  0.000  0.026
    1 -0.000 -0.000 -0.000 -0.000  0.000  0.000  0.000  0.000  0.000 -0.001
    1 -0.000 -0.000  0.000 -0.000  0.000  0.000  0.000  0.000  0.000  0.000
    1  0.000 -0.013  0.013 -0.000  0.000  0.000  0.000  0.000  0.000 -0.000
 
band     7 # energy   20.85472101 # occ.  0.00000000
 
ion      s     py     pz     px    dxy    dyz    dz2    dxz  x2-y2    tot
    1  0.000  0.000  0.000  0.000  0.000  0.000  0.000  0.000  0.000  0.000
    1 -0.000 -0.000  0.000 -0.000  0.000  0.000  0.000  0.000  0.000 -0.000
    1 -0.000  0.000  0.000 -0.000  0.000  0.000  0.000  0.000  0.000  0.000
    1 -0.000 -0.000 -0.000 -0.000  0.000  0.000  0.000  0.000  0.000 -0.000
 
band     8 # energy   20.85472211 # occ.  0.00000000
 
ion      s     py     pz     px    dxy    dyz    dz2    dxz  x2-y2    tot
    1  0.000  0.000  0.000  0.000  0.000  0.000  0.000  0.000  0.000  0.000
    1  0.000 -0.000 -0.000  0.000  0.000  0.000  0.000  0.000  0.000 -0.000
    1  0.000 -0.000 -0.000  0.000  0.000  0.000  0.000  0.000  0.000 -0.000
    1  0.000  0.000  0.000  0.000  0.000  0.000  0.000  0.000  0.000  0.000
 
band     9 # energy   22.54235912 # occ.  0.00000000
 
ion      s     py     pz     px    dxy    dyz    dz2    dxz  x2-y2    tot
    1  0.001  0.023  0.023  0.471  0.000  0.000  0.000  0.000  0.000  0.518
    1 -0.000  0.000  0.000 -0.007  0.000  0.000  0.000  0.000  0.000 -0.006
    1 -0.000  0.000 -0.000 -0.000  0.000  0.000  0.000  0.000  0.000 -0.000
    1  0.001  0.023 -0.023  0.471  0.000  0.000  0.000  0.000  0.000  0.473
 
band    10 # energy   22.54236569 # occ.  0.00000000
 
ion      s     py     pz     px    dxy    dyz    dz2    dxz  x2-y2    tot
    1  0.001  0.023  0.023  0.471  0.000  0.000  0.000  0.000  0.000  0.518
    1  0.000 -0.000 -0.000  0.007  0.000  0.000  0.000  0.000  0.000  0.006
    1  0.000 -0.000  0.000  0.000  0.000  0.000  0.000  0.000  0.000  0.000
    1 -0.001 -0.023  0.023 -0.471  0.000  0.000  0.000  0.000  0.000 -0.473
 
band    11 # energy   22.64679236 # occ.  0.00000000
 
ion      s     py     pz     px    dxy    dyz    dz2    dxz  x2-y2    tot
    1  0.000  0.225  0.225  0.047  0.000  0.000  0.000  0.000  0.000  0.496
    1 -0.000  0.000  0.000 -0.000  0.000  0.000  0.000  0.000  0.000  0.000
    1  0.000 -0.006  0.006  0.001  0.000  0.000  0.000  0.000  0.000  0.002
    1  0.000  0.225 -0.224  0.047  0.000  0.000  0.000  0.000  0.000  0.047
 
band    12 # energy   22.64679692 # occ.  0.00000000
 
ion      s     py     pz     px    dxy    dyz    dz2    dxz  x2-y2    tot
    1  0.000  0.225  0.225  0.047  0.000  0.000  0.000  0.000  0.000  0.496
    1  0.000 -0.000 -0.000  0.000  0.000  0.000  0.000  0.000  0.000 -0.000
    1 -0.000  0.006 -0.006 -0.001  0.000  0.000  0.000  0.000  0.000 -0.001
    1 -0.000 -0.224  0.225 -0.047  0.000  0.000  0.000  0.000  0.000 -0.047
 

 k-point     5 :    0.01680672 0.00000000 0.01680672     weight = 0.00277778

band     1 # energy   -3.09041433 # occ.  1.00000000
 
ion      s     py     pz     px    dxy    dyz    dz2    dxz  x2-y2    tot
    1  0.274  0.000  0.000  0.000  0.000  0.000  0.000  0.000  0.000  0.274
    1 -0.001  0.000  0.000 -0.000  0.000  0.000  0.000  0.000  0.000 -0.001
    1 -0.000  0.000 -0.000 -0.000  0.000  0.000  0.000  0.000  0.000 -0.000
    1  0.274  0.000 -0.000  0.000  0.000  0.000  0.000  0.000  0.000  0.274
 
band     2 # energy   -3.09041014 # occ.  1.00000000
 
ion      s     py     pz     px    dxy    dyz    dz2    dxz  x2-y2    tot
    1  0.274  0.000  0.000  0.000  0.000  0.000  0.000  0.000  0.000  0.274
    1  0.001 -0.000 -0.000  0.000  0.000  0.000  0.000  0.000  0.000  0.001
    1  0.000 -0.000  0.000  0.000  0.000  0.000  0.000  0.000  0.000  0.000
    1 -0.274 -0.000  0.000 -0.000  0.000  0.000  0.000  0.000  0.000 -0.274
 
band     3 # energy   20.76010156 # occ.  0.00000000
 
ion      s     py     pz     px    dxy    dyz    dz2    dxz  x2-y2    tot
    1  0.000  0.022  0.022  0.000  0.000  0.000  0.000  0.000  0.000  0.043
    1 -0.000  0.000  0.000 -0.000  0.000  0.000  0.000  0.000  0.000  0.000
    1  0.000 -0.000  0.000  0.000  0.000  0.000  0.000  0.000  0.000 -0.000
    1  0.000  0.022 -0.022  0.000  0.000  0.000  0.000  0.000  0.000  0.000
 
band     4 # energy   20.76010367 # occ.  0.00000000
 
ion      s     py     pz     px    dxy    dyz    dz2    dxz  x2-y2    tot
    1  0.000  0.022  0.022  0.000  0.000  0.000  0.000  0.000  0.000  0.043
    1  0.000 -0.000 -0.000  0.000  0.000  0.000  0.000  0.000  0.000 -0.000
    1 -0.000  0.000 -0.000 -0.000  0.000  0.000  0.000  0.000  0.000 -0.000
    1 -0.000 -0.022  0.022 -0.000  0.000  0.000  0.000  0.000  0.000  0.000
 
band     5 # energy   20.76363908 # occ.  0.00000000
 
ion      s     py     pz     px    dxy    dyz    dz2    dxz  x2-y2    tot
    1  0.000  0.021  0.021  0.000  0.000  0.000  0.000  0.000  0.000  0.041
    1  0.000  0.001  0.001  0.000  0.000  0.000  0.000  0.000  0.000  0.001
    1  0.000  0.000 -0.000  0.000  0.000  0.000  0.000  0.000  0.000  0.000
    1 -0.000  0.021 -0.021  0.000  0.000  0.000  0.000  0.000  0.000 -0.000
 
band     6 # energy   20.76363977 # occ.  0.00000000
 
ion      s     py     pz     px    dxy    dyz    dz2    dxz  x2-y2    tot
    1  0.000  0.021  0.021  0.000  0.000  0.000  0.000  0.000  0.000  0.041
    1  0.000 -0.001 -0.001 -0.000  0.000  0.000  0.000  0.000  0.000 -0.001
    1  0.000 -0.000  0.000 -0.000  0.000  0.000  0.000  0.000  0.000  0.000
    1  0.000 -0.021  0.021 -0.000  0.000  0.000  0.000  0.000  0.000 -0.000
 
band     7 # energy   20.81760341 # occ.  0.00000000
 
ion      s     py     pz     px    dxy    dyz    dz2    dxz  x2-y2    tot
    1  0.000  0.000  0.000  0.000  0.000  0.000  0.000  0.000  0.000  0.000
    1 -0.000 -0.000  0.000 -0.000  0.000  0.000  0.000  0.000  0.000 -0.000
    1 -0.000  0.000  0.000 -0.000  0.000  0.000  0.000  0.000  0.000  0.000
    1 -0.000 -0.000 -0.000 -0.000  0.000  0.000  0.000  0.000  0.000 -0.000
 
band     8 # energy   20.81760445 # occ.  0.00000000
 
ion      s     py     pz     px    dxy    dyz    dz2    dxz  x2-y2    tot
    1  0.000  0.000  0.000  0.000  0.000  0.000  0.000  0.000  0.000  0.000
    1  0.000 -0.000 -0.000  0.000  0.000  0.000  0.000  0.000  0.000 -0.000
    1  0.000 -0.000 -0.000  0.000  0.000  0.000  0.000  0.000  0.000 -0.000
    1  0.000  0.000  0.000  0.000  0.000  0.000  0.000  0.000  0.000  0.000
 
band     9 # energy   22.53537238 # occ.  0.00000000
 
ion      s     py     pz     px    dxy    dyz    dz2    dxz  x2-y2    tot
    1  0.002  0.007  0.007  0.501  0.000  0.000  0.000  0.000  0.000  0.518
    1 -0.000  0.000  0.000 -0.007  0.000  0.000  0.000  0.000  0.000 -0.007
    1 -0.000  0.000 -0.000 -0.001  0.000  0.000  0.000  0.000  0.000 -0.001
    1  0.002  0.007 -0.007  0.501  0.000  0.000  0.000  0.000  0.000  0.504
 
band    10 # energy   22.53537896 # occ.  0.00000000
 
ion      s     py     pz     px    dxy    dyz    dz2    dxz  x2-y2    tot
    1  0.002  0.007  0.007  0.501  0.000  0.000  0.000  0.000  0.000  0.518
    1  0.000 -0.000 -0.000  0.007  0.000  0.000  0.000  0.000  0.000  0.007
    1  0.000 -0.000  0.000  0.001  0.000  0.000  0.000  0.000  0.000  0.001
    1 -0.002 -0.007  0.007 -0.501  0.000  0.000  0.000  0.000  0.000 -0.504
 
band    11 # energy   22.70887453 # occ.  0.00000000
 
ion      s     py     pz     px    dxy    dyz    dz2    dxz  x2-y2    tot
    1  0.000  0.232  0.232  0.015  0.000  0.000  0.000  0.000  0.000  0.479
    1 -0.000  0.000  0.000 -0.000  0.000  0.000  0.000  0.000  0.000  0.000
    1  0.000 -0.006  0.006  0.000  0.000  0.000  0.000  0.000  0.000  0.001
    1  0.000  0.232 -0.232  0.015  0.000  0.000  0.000  0.000  0.000  0.015
 
band    12 # energy   22.70887899 # occ.  0.00000000
 
ion      s     py     pz     px    dxy    dyz    dz2    dxz  x2-y2    tot
    1  0.000  0.232  0.232  0.015  0.000  0.000  0.000  0.000  0.000  0.479
    1  0.000 -0.000 -0.000  0.000  0.000  0.000  0.000  0.000  0.000 -0.000
    1 -0.000  0.006 -0.006 -0.000  0.000  0.000  0.000  0.000  0.000 -0.001
    1 -0.000 -0.232  0.232 -0.015  0.000  0.000  0.000  0.000  0.000 -0.015
 

 k-point     6 :    0.02100840 0.00000000 0.02100840     weight = 0.00277778

band     1 # energy   -3.08457030 # occ.  1.00000000
 
ion      s     py     pz     px    dxy    dyz    dz2    dxz  x2-y2    tot
    1  0.274  0.000  0.000  0.000  0.000  0.000  0.000  0.000  0.000  0.274
    1 -0.001  0.000  0.000 -0.000  0.000  0.000  0.000  0.000  0.000 -0.001
    1 -0.000  0.000 -0.000 -0.000  0.000  0.000  0.000  0.000  0.000 -0.000
    1  0.274  0.000 -0.000  0.000  0.000  0.000  0.000  0.000  0.000  0.274
 
band     2 # energy   -3.08456611 # occ.  1.00000000
 
ion      s     py     pz     px    dxy    dyz    dz2    dxz  x2-y2    tot
    1  0.274  0.000  0.000  0.000  0.000  0.000  0.000  0.000  0.000  0.274
    1  0.001 -0.000 -0.000  0.000  0.000  0.000  0.000  0.000  0.000  0.001
    1  0.000 -0.000  0.000  0.000  0.000  0.000  0.000  0.000  0.000  0.000
    1 -0.274 -0.000  0.000 -0.000  0.000  0.000  0.000  0.000  0.000 -0.274
 
band     3 # energy   20.68891356 # occ.  0.00000000
 
ion      s     py     pz     px    dxy    dyz    dz2    dxz  x2-y2    tot
    1  0.000  0.030  0.030  0.000  0.000  0.000  0.000  0.000  0.000  0.060
    1 -0.000  0.000  0.000 -0.000  0.000  0.000  0.000  0.000  0.000  0.001
    1  0.000 -0.000  0.000  0.000  0.000  0.000  0.000  0.000  0.000 -0.000
    1  0.000  0.030 -0.030  0.000  0.000  0.000  0.000  0.000  0.000  0.000
 
band     4 # energy   20.68891577 # occ.  0.00000000
 
ion      s     py     pz     px    dxy    dyz    dz2    dxz  x2-y2    tot
    1  0.000  0.030  0.030  0.000  0.000  0.000  0.000  0.000  0.000  0.060
    1  0.000 -0.000 -0.000  0.000  0.000  0.000  0.000  0.000  0.000 -0.001
    1 -0.000  0.000 -0.000 -0.000  0.000  0.000  0.000  0.000  0.000 -0.000
    1 -0.000 -0.030  0.030 -0.000  0.000  0.000  0.000  0.000  0.000  0.000
 
band     5 # energy   20.69385182 # occ.  0.00000000
 
ion      s     py     pz     px    dxy    dyz    dz2    dxz  x2-y2    tot
    1  0.000  0.029  0.029  0.000  0.000  0.000  0.000  0.000  0.000  0.058
    1  0.000  0.001  0.001  0.000  0.000  0.000  0.000  0.000  0.000  0.002
    1  0.000 -0.000  0.000  0.000  0.000  0.000  0.000  0.000  0.000  0.000
    1 -0.000  0.029 -0.029  0.000  0.000  0.000  0.000  0.000  0.000 -0.000
 
band     6 # energy   20.69385262 # occ.  0.00000000
 
ion      s     py     pz     px    dxy    dyz    dz2    dxz  x2-y2    tot
    1  0.000  0.029  0.029  0.000  0.000  0.000  0.000  0.000  0.000  0.058
    1 -0.000 -0.001 -0.001 -0.000  0.000  0.000  0.000  0.000  0.000 -0.002
    1 -0.000  0.000 -0.000  0.000  0.000  0.000  0.000  0.000  0.000  0.000
    1 -0.000 -0.029  0.029 -0.000  0.000  0.000  0.000  0.000  0.000 -0.000
 
band     7 # energy   20.77108775 # occ.  0.00000000
 
ion      s     py     pz     px    dxy    dyz    dz2    dxz  x2-y2    tot
    1  0.000  0.000  0.000  0.000  0.000  0.000  0.000  0.000  0.000  0.000
    1 -0.000 -0.000  0.000 -0.000  0.000  0.000  0.000  0.000  0.000 -0.000
    1 -0.000  0.000  0.000 -0.000  0.000  0.000  0.000  0.000  0.000  0.000
    1 -0.000 -0.000 -0.000 -0.000  0.000  0.000  0.000  0.000  0.000 -0.000
 
band     8 # energy   20.77108872 # occ.  0.00000000
 
ion      s     py     pz     px    dxy    dyz    dz2    dxz  x2-y2    tot
    1  0.000  0.000  0.000  0.000  0.000  0.000  0.000  0.000  0.000  0.000
    1  0.000 -0.000 -0.000  0.000  0.000  0.000  0.000  0.000  0.000 -0.000